ITEM: TIMESTEP
0
ITEM: NUMBER OF ATOMS
2000
ITEM: BOX BOUNDS pp pp pp
1.8292885330785609e+01 6.1707114669130533e+01
1.8292885330785609e+01 6.1707114669130533e+01
1.8292885330785609e+01 6.1707114669130533e+01
ITEM: ATOMS id mol type q xu yu zu 
1329 1329 1 0 324.551 64.0649 325.676 
1860 1860 2 0 -106.556 -64.2666 108.906 
191 191 1 0 -22.3297 -280.394 149.898 
1179 1179 1 0 -194.095 110.139 68.747 
101 101 1 0 326.497 236.377 67.7126 
53 53 1 0 -105.874 154.812 236.289 
914 914 2 0 63.1187 154.1 196.476 
728 728 2 0 -23.3969 108.271 155.621 
1790 1790 2 0 -106.616 236.193 194.623 
1800 1800 2 0 -109.687 -155.142 148.885 
481 481 1 0 151.532 -16.7713 -152.293 
366 366 2 0 -19.3402 -103.781 154.183 
1931 1931 1 0 -105.997 115.402 366.347 
426 426 2 0 63.6795 70.0376 68.2124 
678 678 2 0 -17.6089 -153.288 -61.6721 
939 939 1 0 70.048 -22.5294 21.5717 
160 160 2 0 72.8555 -108.292 67.1699 
1509 1509 1 0 -147.274 -323.483 67.2942 
1497 1497 1 0 74.602 -194.476 107.255 
1730 1730 2 0 -102.318 23.8784 -153.605 
1554 1554 2 0 246.777 -197.563 193.16 
1755 1755 1 0 162.113 -23.7342 195.822 
1007 1007 1 0 202.268 18.3343 154.2 
1131 1131 1 0 -187.533 68.9199 -107.537 
1061 1061 1 0 -277.49 26.7947 -195.841 
94 94 2 0 116.453 245.366 148.66 
1741 1741 1 0 31.858 72.1009 21.6981 
1004 1004 2 0 162.895 -16.7355 62.4873 
29 29 1 0 -55.4122 -67.1602 -17.239 
1652 1652 2 0 74.2417 155.596 69.3756 
926 926 2 0 157.763 -147.069 25.6475 
78 78 2 0 81.6877 235.663 112.12 
284 284 2 0 -95.7413 109.384 -152.214 
1963 1963 1 0 80.4519 152.293 155.753 
1152 1152 2 0 -135.176 -193.514 65.8686 
936 936 2 0 77.8249 62.8609 67.9367 
1047 1047 1 0 210.265 63.3745 65.3886 
1468 1468 2 0 -50.0457 281.963 -111.374 
727 727 1 0 -90.7086 -106.415 -24.2095 
458 458 2 0 293.52 155.755 -107.762 
1135 1135 1 0 -97.3644 -20.7131 -62.0097 
333 333 1 0 122.966 -61.6733 236.684 
794 794 2 0 170.211 150.6 150.061 
722 722 2 0 -5.06986 -144.571 -108.935 
1557 1557 1 0 -223.873 26.6033 153.279 
1086 1086 2 0 169.839 -188.479 24.9155 
735 735 1 0 33.0113 -58.758 -18.4698 
752 752 2 0 -133.728 200.959 -68.5009 
1722 1722 2 0 121.451 25.2472 -16.9997 
1046 1046 2 0 81.7518 -191.725 -147.784 
1942 1942 2 0 68.5443 192.287 247.535 
1498 1498 2 0 195.42 -193.531 28.5501 
1370 1370 2 0 -191.909 372.169 244.534 
957 957 1 0 -18.9283 -192.674 248.132 
1991 1991 1 0 22.6224 64.3718 118.053 
1041 1041 1 0 106.148 63.0372 -100.907 
778 778 2 0 -194.444 540.872 -15.5682 
995 995 1 0 148.739 -193.6 -230.9 
1474 1474 2 0 20.3325 -24.8151 -10.8733 
334 334 2 0 61.8246 27.9579 -141.283 
1774 1774 2 0 63.0721 -190.547 28.366 
1761 1761 1 0 22.7774 27.506 -59.8323 
1408 1408 2 0 154.65 -58.8282 203.679 
521 521 1 0 -22.3693 72.2625 290.822 
1601 1601 1 0 21.3476 156.095 -185.009 
1596 1596 2 0 -153.536 283.071 -97.2476 
1282 1282 2 0 23.6766 -20.5304 251.22 
1673 1673 1 0 -239.101 63.753 -51.5218 
859 859 1 0 67.2883 -24.9266 467.991 
224 224 2 0 19.9259 201.972 -94.8368 
784 784 2 0 -18.9824 199.942 164.244 
1561 1561 1 0 68.9469 282.108 245.881 
874 874 2 0 201.951 106.354 114.363 
1097 1097 1 0 29.2906 19.5876 -186.039 
543 543 1 0 -188.766 22.8807 200.719 
1406 1406 2 0 248.399 66.0271 159.487 
1453 1453 1 0 27.9565 153.606 -11.6177 
1694 1694 2 0 -140.928 194.279 161.899 
256 256 2 0 289.698 68.8927 -101.099 
1793 1793 1 0 74.9532 71.3963 158.45 
1325 1325 1 0 27.5368 115.839 -102.123 
7 7 1 0 -315.079 287.549 -11.6518 
707 707 1 0 -146.037 70.0477 76.0128 
578 578 2 0 113.555 150.647 -140.456 
1274 1274 2 0 -100.354 194.756 -269.656 
134 134 2 0 202.433 -18.6017 -94.5973 
355 355 1 0 206.334 149.315 121.874 
844 844 2 0 -55.6812 -192.923 206.695 
220 220 2 0 70.7158 71.6306 35.6418 
503 503 1 0 247.935 70.9765 -8.03652 
1588 1588 2 0 36.7486 67.0507 -188.423 
1899 1899 1 0 -5.06871 367.798 332.131 
1238 1238 2 0 80.1461 -110.855 -99.1326 
1809 1809 1 0 -95.7128 151.253 71.3919 
23 23 1 0 -139.689 197.447 334.918 
1922 1922 2 0 37.2765 68.6839 -11.6973 
1403 1403 1 0 126.335 -64.6112 292.384 
1533 1533 1 0 165.429 -16.3883 -144.336 
1620 1620 2 0 38.8259 -15.3432 73.0726 
1769 1769 1 0 -50.4818 -21.2349 120.09 
15 15 1 0 -5.37585 106.142 34.2357 
795 795 1 0 77.8552 68.5967 207.874 
236 236 2 0 37.9596 -104.201 -51.2117 
19 19 1 0 -51.1823 -232.208 32.9811 
834 834 2 0 195.994 239.858 -91.9726 
1964 1964 2 0 -67.8522 370.362 -50.3936 
915 915 1 0 -108.513 242.332 -224.701 
400 400 2 0 -105.838 -67.042 254.28 
1848 1848 2 0 111.818 329.195 81.144 
1656 1656 2 0 -284.73 329.631 299.032 
969 969 1 0 195.299 -101.939 -4.88156 
1978 1978 2 0 107.532 -104.969 -42.5018 
1326 1326 2 0 -20.524 65.9672 86.3339 
1721 1721 1 0 23.3328 198.747 84.1104 
1677 1677 1 0 -18.8388 25.228 217.963 
1426 1426 2 0 62.5292 -193.508 171.549 
1957 1957 1 0 -20.6874 -240.555 -3.06665 
559 559 1 0 -21.033 236.253 87.4743 
1458 1458 2 0 240.462 28.3786 -87.5301 
1829 1829 1 0 -283.862 -15.9566 41.4464 
1357 1357 1 0 286.246 152.487 169.822 
68 68 2 0 -229.02 236.981 81.866 
49 49 1 0 -58.3294 62.6305 -50.056 
1314 1314 2 0 29.217 66.3882 298.931 
1057 1057 1 0 -147.154 65.7222 -7.33207 
1933 1933 1 0 119.467 152.949 -7.63374 
1976 1976 2 0 162.014 -18.1176 -5.24623 
1164 1164 2 0 -56.0115 -14.3169 168.683 
59 59 1 0 158.31 -16.9784 125.733 
855 855 1 0 -101.593 111.01 85.0676 
627 627 1 0 -12.8717 -194.695 -303.122 
1636 1636 2 0 162.024 -21.3385 -89.1576 
1484 1484 2 0 29.4133 149.17 -129.799 
1872 1872 2 0 26.7853 -195.215 0.199891 
109 109 1 0 115.51 584.721 127.455 
1310 1310 2 0 -191.503 -241.711 259.786 
1087 1087 1 0 -143.091 70.8308 84.8519 
300 300 2 0 -59.9366 -15.9945 -44.8658 
1826 1826 2 0 -49.0014 23.9562 -3.88777 
955 955 1 0 -51.9214 325.705 -3.83695 
222 222 2 0 122.295 64.0689 -50.6279 
1617 1617 1 0 81.9558 66.1281 -180.712 
1587 1587 1 0 35.2303 -62.3906 254.501 
1405 1405 1 0 -135.833 -58.666 38.6332 
1340 1340 2 0 34.2045 71.4235 -7.04636 
1136 1136 2 0 295.957 23.9623 42.1442 
913 913 1 0 164.251 -153.023 -43.6468 
337 337 1 0 125.576 151.898 -1.32295 
128 128 2 0 -92.4716 -24.66 -3.38664 
1355 1355 1 0 34.13 69.9089 40.3469 
398 398 2 0 163.809 -15.5092 86.843 
1529 1529 1 0 124.385 114.315 432.732 
1490 1490 2 0 20.4644 -67.5341 46.885 
769 769 1 0 279.537 -65.1745 -42.4803 
313 313 1 0 22.6134 152.407 -127.194 
399 399 1 0 329.34 280.652 219.871 
365 365 1 0 238.95 202.077 -214.7 
1805 1805 1 0 22.0715 68.8335 134.914 
1536 1536 2 0 22.3117 -22.9118 310.179 
1926 1926 2 0 197.956 194.932 -121.248 
993 993 1 0 195.875 24.2913 225.742 
200 200 2 0 -148.681 109.832 223.179 
1613 1613 1 0 -23.9471 -64.3721 -124.785 
1556 1556 2 0 18.9782 -102.779 47.3009 
186 186 2 0 -191.861 -189.35 -342.808 
1076 1076 2 0 -67.7118 156.702 -122.838 
1869 1869 1 0 287.794 -410.186 219.98 
984 984 2 0 333.041 -152.728 133.852 
482 482 2 0 29.816 26.0819 1.60435 
1715 1715 1 0 -142.062 28.6991 263.355 
1231 1231 1 0 159.421 -111.085 6.6435 
2000 2000 2 0 69.1323 192.794 223.224 
1392 1392 2 0 288.846 152.678 -209.802 
41 41 1 0 -55.9602 154.153 -125.746 
1884 1884 2 0 292.781 -109.216 93.5164 
1121 1121 1 0 292.244 -106.086 95.088 
1328 1328 2 0 69.0533 328.365 -164.535 
289 289 1 0 -276.564 -148.16 49.4241 
1903 1903 1 0 71.9087 -57.988 4.74166 
536 536 2 0 31.61 26.8739 309.933 
1347 1347 1 0 161.671 71.7059 182.8 
1806 1806 2 0 250.416 -62.2296 -85.2672 
1747 1747 1 0 36.6087 237.839 88.884 
618 618 2 0 -184.293 -109.128 -40.4057 
63 63 1 0 80.2032 199.043 -41.5106 
1830 1830 2 0 -3.86768 65.9884 -41.213 
1385 1385 1 0 80.6026 72.3608 89.0682 
1837 1837 1 0 -5.01932 238.521 136.138 
1352 1352 2 0 82.1007 105.66 182.016 
1705 1705 1 0 77.8944 23.8657 48.6297 
1823 1823 1 0 122.838 -19.5541 95.1195 
1045 1045 1 0 34.7215 -198.619 135.204 
679 679 1 0 34.6818 -24.2019 -35.0292 
1898 1898 2 0 168.997 -18.4566 308.553 
962 962 2 0 -9.0438 113.637 51.4654 
171 171 1 0 80.8252 -189.148 92.8775 
1078 1078 2 0 -182.334 -146.536 90.8159 
992 992 2 0 -5.43327 -103.294 -77.545 
35 35 1 0 281.449 20.964 -120.406 
686 686 2 0 -111.949 105.624 140.291 
1147 1147 1 0 -105.2 375.669 140.923 
455 455 1 0 19.0527 -23.4251 230.226 
1594 1594 2 0 -111.118 108.023 -26.6562 
1120 1120 2 0 65.7581 21.0327 -73.8217 
381 381 1 0 -66.2625 -19.633 -115.745 
1171 1171 1 0 109.744 -152.608 148.212 
292 292 2 0 -106.239 23.4309 102.275 
515 515 1 0 195.547 61.7342 -201.591 
1165 1165 1 0 284.048 -105.975 -31.5469 
1530 1530 2 0 111.985 63.5415 58.2808 
436 436 2 0 192.13 -18.5609 148.187 
1597 1597 1 0 -149.588 105.556 228.378 
1234 1234 2 0 324.617 -60.2797 -75.5049 
123 123 1 0 -67.7732 -16.5024 -71.5616 
1880 1880 2 0 368.746 -103.639 -68.9426 
923 923 1 0 66.9587 -16.5783 58.3956 
1276 1276 2 0 -16.3226 105.978 -33.6317 
1351 1351 1 0 117.291 -66.4018 -207.328 
1384 1384 2 0 -14.0684 153.915 97.7585 
279 279 1 0 -275.73 -16.6367 96.4885 
446 446 2 0 -103.452 21.2722 148.111 
705 705 1 0 156.596 325.721 55.4403 
108 108 2 0 246.555 -282.926 -30.3398 
375 375 1 0 117.081 325.078 59.8912 
87 87 1 0 -54.6157 -193.586 14.1631 
1861 1861 1 0 70.9164 -20.2197 145.228 
1983 1983 1 0 -56.7898 -105.188 -69.2634 
800 800 2 0 32.6066 237.203 -203.02 
178 178 2 0 249.746 286.661 185.256 
1622 1622 2 0 69.8687 -191.212 142.943 
920 920 2 0 74.3852 -187.972 12.5174 
1739 1739 1 0 -59.2118 158.956 100.985 
1940 1940 2 0 330.494 156.713 320.621 
214 214 2 0 -187.29 112.829 318.057 
413 413 1 0 -228.285 244.808 -27.5898 
190 190 2 0 -4.46206 67.0136 270.544 
424 424 2 0 -96.49 195.761 487.74 
1399 1399 1 0 82.7023 -24.6007 55.4257 
960 960 2 0 -96.9811 109.702 17.6346 
1750 1750 2 0 -92.7188 148.885 449.037 
1923 1923 1 0 -49.9386 -282.597 55.1218 
489 489 1 0 79.3201 195.433 -114.662 
1634 1634 2 0 -4.53394 -106.155 -114.442 
1178 1178 2 0 34.9455 198.983 -115.047 
545 545 1 0 -90.4592 -239.651 16.425 
305 305 1 0 76.5831 192.785 191.437 
633 633 1 0 297.267 -61.2859 -74.5463 
1345 1345 1 0 37.5315 -59.2973 59.2468 
369 369 1 0 338.689 -15.1718 100.206 
352 352 2 0 125.31 115.774 316.777 
1069 1069 1 0 19.9323 249.485 18.4568 
137 137 1 0 195.866 116.198 -19.2948 
1706 1706 2 0 -62.8148 31.9444 -458.766 
1690 1690 2 0 -66.6851 116.766 107.724 
1524 1524 2 0 24.5162 -133.959 196.973 
88 88 2 0 105.657 382.73 63.4017 
1350 1350 2 0 -66.3336 -438.725 325.812 
1595 1595 1 0 150.571 -53.4109 152.714 
956 956 2 0 282.861 -95.0268 20.2726 
132 132 2 0 -64.7028 -94.0226 -62.9404 
929 929 1 0 24.333 206.537 109.142 
332 332 2 0 -19.4286 82.1825 -110.353 
147 147 1 0 112.159 -180.637 109.103 
571 571 1 0 279.941 -307.498 -198.216 
866 866 2 0 -24.9985 -50.7214 110.803 
953 953 1 0 -111.834 206.415 242.919 
338 338 2 0 20.1019 203.438 26.8273 
1072 1072 2 0 -238.579 32.6281 -148.03 
1124 1124 2 0 -66.2495 342.877 70.069 
1663 1663 1 0 -191.575 125.123 -190.366 
410 410 2 0 24.9364 294.669 25.569 
1322 1322 2 0 -104.522 -143.283 -105.124 
1424 1424 2 0 -233.83 -13.1109 108.138 
1090 1090 2 0 73.4244 118.526 194.893 
476 476 2 0 159.323 29.6303 110.911 
1446 1446 2 0 -184.801 205.027 67.7472 
708 708 2 0 -141.597 247.939 235.573 
1892 1892 2 0 26.9643 -53.1324 -66.7964 
495 495 1 0 114.354 163.292 153.762 
56 56 2 0 245.371 -94.3754 25.3567 
845 845 1 0 -12.9472 164.923 -237.636 
670 670 2 0 -272.341 34.4445 19.6526 
997 997 1 0 118.232 169.054 -191.714 
1349 1349 1 0 202.295 125.866 -237.441 
1977 1977 1 0 -58.6437 -6.42692 63.4352 
942 942 2 0 -55.14 -49.3331 -22.0165 
1945 1945 1 0 115.581 206.423 -103.535 
1962 1962 2 0 -54.8874 -8.05978 69.847 
52 52 2 0 209.079 -143.632 110.219 
1541 1541 1 0 -96.6229 336.117 -22.1702 
65 65 1 0 34.963 202.877 63.3666 
626 626 2 0 -265.64 -315.516 -149.11 
12 12 2 0 35.8102 32.5621 62.0674 
1814 1814 2 0 80.8463 -183.625 -21.8862 
185 185 1 0 252.285 -47.6835 -153.937 
1186 1186 2 0 -5.25936 -223.71 64.1546 
1539 1539 1 0 295.246 78.9901 194.94 
927 927 1 0 251.52 37.1135 -149.298 
704 704 2 0 124.654 209.795 25.1519 
1313 1313 1 0 165.389 163.708 -62.532 
377 377 1 0 -266.075 126.176 -20.382 
603 603 1 0 -137.117 116.329 -190.166 
1602 1602 2 0 -135.369 256.798 243.516 
21 21 1 0 67.1358 74.2919 114.745 
732 732 2 0 66.966 205.342 -142.293 
1449 1449 1 0 -22.8648 32.445 -13.9697 
1184 1184 2 0 18.5248 -51.5162 116.661 
985 985 1 0 151.244 -7.83315 70.5815 
542 542 2 0 -19.7123 34.4656 72.4438 
911 911 1 0 -151.532 124.168 73.4315 
1465 1465 1 0 194.91 34.6337 205.616 
9 9 1 0 -18.5082 -8.08872 32.6772 
1491 1491 1 0 148.645 37.2171 -10.7031 
965 965 1 0 -22.9258 -142.686 250.326 
209 209 1 0 370.51 159.607 78.6832 
354 354 2 0 371.227 249.82 -51.9317 
710 710 2 0 -109.022 213.655 165.851 
1766 1766 2 0 65.7774 37.4084 33.5709 
1311 1311 1 0 26.431 203.741 -227.863 
28 28 2 0 30.5574 74.4871 -144.386 
1546 1546 2 0 157.035 292.469 -187.538 
1888 1888 2 0 73.2736 29.4362 119.16 
858 858 2 0 -61.0009 125.252 291.155 
1503 1503 1 0 28.7553 -221.67 27.7226 
1175 1175 1 0 -59.9239 165.938 28.8993 
1346 1346 2 0 72.804 300.189 75.4315 
311 311 1 0 292.656 212.093 29.5075 
1851 1851 1 0 -56.7611 -52.2227 -100.786 
1167 1167 1 0 -55.381 119.761 32.237 
554 554 2 0 245.387 -7.1019 205.793 
1606 1606 2 0 114.535 -183.815 -226.747 
1132 1132 2 0 464.925 39.1988 -355.097 
1447 1447 1 0 -146.49 -135.11 77.8622 
661 661 1 0 31.7253 80.3007 163.275 
251 251 1 0 -10.037 75.8688 -276.435 
429 429 1 0 -3.83785 -359.79 157.867 
335 335 1 0 -9.77623 30.4067 -12.6646 
1354 1354 2 0 341.243 161.47 117.048 
1811 1811 1 0 82.974 -309.76 333.163 
1642 1642 2 0 -310.554 120.249 -16.0205 
988 988 2 0 -9.95541 208.425 117.002 
1203 1203 1 0 -7.3714 254.332 -15.279 
140 140 2 0 36.1749 -90.7702 -12.4055 
651 651 1 0 210.79 121.515 334.703 
278 278 2 0 76.5326 -56.2664 -269.712 
1092 1092 2 0 -3.89129 72.8813 -140.701 
1169 1169 1 0 256.556 119.88 -53.7981 
1336 1336 2 0 426.282 163.21 120.139 
742 742 2 0 122.319 -49.809 207.483 
385 385 1 0 299.6 83.0703 76.2231 
1108 1108 2 0 64.3212 -55.3599 36.7464 
1443 1443 1 0 242.09 -186.773 -135.666 
779 779 1 0 281.147 78.9388 -50.8925 
260 260 2 0 20.6695 35.059 169.919 
223 223 1 0 -106.022 250.84 -135.016 
1284 1284 2 0 196.493 -49.5937 38.0031 
1423 1423 1 0 19.6837 39.3365 -221.927 
788 788 2 0 151.719 248.087 -2.62451 
1249 1249 1 0 152.962 -142.134 87.4473 
118 118 2 0 149.605 -13.3948 -260.251 
457 457 1 0 198.995 31.0583 215.462 
1947 1947 1 0 18.6564 -53.9115 128.278 
312 312 2 0 109.587 -52.2027 -87.754 
237 237 1 0 -152.576 -92.2366 215.039 
840 840 2 0 280.082 78.95 -217.006 
1771 1771 1 0 -61.8613 -6.16725 127.906 
1791 1791 1 0 -187.152 31.2514 79.1706 
1879 1879 1 0 418.834 -7.68401 169.916 
188 188 2 0 199.575 -50.5088 -50.0496 
98 98 2 0 248.703 -6.12292 39.2618 
340 340 2 0 71.1097 256.714 -5.32554 
1005 1005 1 0 29.858 -51.0399 -137.92 
1168 1168 2 0 200.875 206.522 -49.526 
1843 1843 1 0 74.611 -9.45311 -91.6804 
1155 1155 1 0 -58.0357 -56.5144 -219.419 
1133 1133 1 0 205.767 334.933 -87.4662 
1193 1193 1 0 330.273 34.3872 -131.37 
1102 1102 2 0 247.072 -270.312 41.8571 
1944 1944 2 0 -15.1676 37.5288 86.0827 
1667 1667 1 0 32.3702 427.573 -87.6644 
897 897 1 0 73.9323 -46.9287 388.549 
93 93 1 0 125.893 -11.6151 -134.051 
367 367 1 0 76.7963 248.538 -92.3998 
432 432 2 0 80.2757 74.1228 -93.8421 
711 711 1 0 120.463 -307.435 -179.47 
1886 1886 2 0 126.414 81.4101 166.627 
1335 1335 1 0 -7.29687 33.522 -135.064 
1272 1272 2 0 35.4771 -6.50017 -48.5917 
1157 1157 1 0 33.8572 165.125 -224.512 
1396 1396 2 0 126.735 -94.71 39.5871 
687 687 1 0 -136.032 35.1438 -7.51029 
1669 1669 1 0 -135.866 125.943 82.9597 
1862 1862 2 0 296.268 -12.3773 41.2336 
790 790 2 0 -47.1895 160.436 303.486 
110 110 2 0 167.958 -4.4865 86.3677 
808 808 2 0 34.6677 39.1382 -262.98 
598 598 2 0 207.125 -53.0338 128.02 
107 107 1 0 -50.5347 79.114 42.1132 
141 141 1 0 19.7054 -140.85 -214.931 
362 362 2 0 -66.4427 -4.70299 -84.7915 
1779 1779 1 0 153.463 -138.956 46.6235 
580 580 2 0 242.181 37.0508 87.849 
751 751 1 0 197.024 124.888 47.2128 
382 382 2 0 65.9976 -142.296 90.8846 
1921 1921 1 0 106.16 116.326 9.00109 
1461 1461 1 0 -24.8221 -55.8635 -125.341 
1571 1571 1 0 -194.317 -100.792 138.151 
1684 1684 2 0 150.907 -54.6576 -122.919 
1429 1429 1 0 111.027 -10.891 -79.6048 
1534 1534 2 0 237.159 165.47 135.219 
1801 1801 1 0 324.063 82.2051 92.6308 
1768 1768 2 0 109.576 80.0813 224.171 
567 567 1 0 112.637 29.3322 -41.864 
86 86 2 0 -14.4849 248.151 88.3997 
1372 1372 2 0 69.3116 76.2962 -128.316 
1919 1919 1 0 160.167 121.353 -302.093 
1777 1777 1 0 158.175 -5.62078 -83.7827 
656 656 2 0 161.614 -92.3628 523.254 
212 212 2 0 335.327 -11.1244 4.18639 
271 271 1 0 157.779 -54.6934 -81.7909 
922 922 2 0 26.2229 29.759 137.565 
811 811 1 0 -360.468 74.2051 50.5296 
549 549 1 0 112.646 300.257 266.046 
1605 1605 1 0 199.718 -136.421 95.0947 
348 348 2 0 -191.274 165.722 309.152 
1925 1925 1 0 -144.265 -50.2689 223.014 
342 342 2 0 -142.318 34.2327 51.0265 
930 930 2 0 -102.296 -9.71139 51.6257 
1938 1938 2 0 160.384 80.4544 9.52862 
599 599 1 0 -140.937 383.224 48.3225 
1802 1802 2 0 115.804 39.6612 7.30507 
1183 1183 1 0 120.997 74.481 -171.169 
944 944 2 0 -93.4789 -10.5717 44.405 
1150 1150 2 0 -96.5942 -8.58788 1.83522 
258 258 2 0 -178.365 79.7223 132.115 
346 346 2 0 124.499 -3.8777 -127.148 
719 719 1 0 208.498 81.7084 -171.897 
602 602 2 0 80.6656 -98.9263 4.88573 
13 13 1 0 33.6503 -100.24 -80.2103 
925 925 1 0 298.842 30.8191 95.7631 
1050 1050 2 0 -3.85026 -10.0936 267.259 
1901 1901 1 0 253.459 -138.811 307.85 
1242 1242 2 0 -51.1728 -135.966 -37.7777 
1735 1735 1 0 -183.063 253.398 -78.4194 
1849 1849 1 0 -224.041 -134.683 9.24335 
620 620 2 0 -8.71676 33.1508 224.499 
1158 1158 2 0 -5.41098 35.3458 -251.209 
1031 1031 1 0 212.628 -93.282 -255.217 
1680 1680 2 0 -227.343 -90.7323 50.4844 
1464 1464 2 0 -46.9997 -48.6843 268.861 
1499 1499 1 0 196.048 162.14 227.487 
744 744 2 0 148.968 32.75 -76.1941 
105 105 1 0 -238.562 82.212 -164.018 
1853 1853 1 0 -148.95 -8.94855 227.096 
1476 1476 2 0 -22.1449 35.2229 9.84258 
130 130 2 0 -65.3404 203.582 277.237 
1907 1907 1 0 152.246 -13.8851 187.02 
242 242 2 0 -283.587 119.207 -72.3246 
646 646 2 0 -18.6985 117.006 -244.706 
1208 1208 2 0 25.0456 248.47 55.9823 
718 718 2 0 285.265 37.7306 55.0339 
310 310 2 0 194.119 -180.133 -157.582 
1083 1083 1 0 152.674 -96.0352 16.72 
777 777 1 0 21.152 254.181 99.5243 
1270 1270 2 0 -106.528 78.0128 187.198 
1382 1382 2 0 242.347 166.364 60.6216 
159 159 1 0 -62.8951 -91.8211 58.456 
1001 1001 1 0 -189.211 73.7465 97.5354 
1866 1866 2 0 -314.938 -11.6074 270.518 
1863 1863 1 0 -102.6 -47.2821 -162.942 
1317 1317 1 0 70.7101 -12.5699 104.769 
1125 1125 1 0 -13.095 74.6827 15.3901 
138 138 2 0 29.7979 121.433 190.199 
1389 1389 1 0 32.2172 78.4591 -118.947 
1707 1707 1 0 -12.4814 81.3863 -68.7454 
143 143 1 0 -102.519 -224.64 -205.233 
1504 1504 2 0 -317.583 -53.9899 55.5616 
1103 1103 1 0 -143.125 255.357 577.155 
1470 1470 2 0 375.464 80.8205 232.125 
1973 1973 1 0 -16.1339 163.564 57.9538 
299 299 1 0 156.698 39.5081 -286.794 
470 470 2 0 -51.7693 -13.8289 53.4814 
1211 1211 1 0 122.285 76.2635 54.3571 
837 837 1 0 -136.954 31.6828 -29.1885 
1318 1318 2 0 82.2962 117.859 -26.5154 
1320 1320 2 0 338.799 -13.4855 -26.787 
16 16 2 0 -53.5996 292.283 -116.762 
281 281 1 0 296.557 -91.4038 146.218 
1316 1316 2 0 -52.571 123.28 148.014 
1988 1988 2 0 39.5903 81.0433 60.922 
329 329 1 0 -4.92603 80.9218 55.3402 
1039 1039 1 0 -53.9866 36.3356 57.7932 
1410 1410 2 0 121.289 168.142 -292.079 
1834 1834 2 0 125.627 33.0235 142.127 
1278 1278 2 0 123.016 -94.8062 -28.9361 
1113 1113 1 0 125.089 -8.91897 60.6762 
263 263 1 0 -227.43 -96.748 -113.775 
1960 1960 2 0 -106.57 -303.26 -149.81 
959 959 1 0 -66.7971 130.844 108.987 
749 749 1 0 -20.8526 128.741 20.9658 
771 771 1 0 108.329 41.2383 67.5887 
999 999 1 0 22.604 -128.458 63.0467 
218 218 2 0 106.009 -83.1133 107.01 
841 841 1 0 -21.5213 350.818 -20.522 
26 26 2 0 20.2235 -41.7529 112.25 
1180 1180 2 0 -61.5274 129.309 365.656 
250 250 2 0 150.281 173.458 -68.3675 
798 798 2 0 -196.338 93.8012 108.616 
1051 1051 1 0 198.016 92.0293 20.8886 
908 908 2 0 108.362 6.07939 68.6218 
1058 1058 2 0 -105.556 48.3488 415.051 
1489 1489 1 0 148.903 48.1472 197.068 
228 228 2 0 105.668 -299.033 -59.8898 
395 395 1 0 -57.7369 87.869 -195.404 
485 485 1 0 -60.2735 -175.024 21.8142 
1380 1380 2 0 -99.9843 345.911 -19.5286 
1631 1631 1 0 -54.6606 85.4416 20.7155 
197 197 1 0 -60.2735 -84.814 242.509 
928 928 2 0 25.8877 -128.244 20.8951 
553 553 1 0 -12.6664 -84.3506 154.689 
842 842 2 0 -57.7928 -176.438 63.1591 
980 980 2 0 -11.5421 -83.8941 -196.132 
1526 1526 2 0 115.197 308.356 22.3245 
700 700 2 0 246.457 7.17128 285.303 
613 613 1 0 -272.201 136.654 -20.9906 
526 526 2 0 73.7733 -383.624 62.3464 
25 25 1 0 -188.627 134.583 -25.1171 
852 852 2 0 113.707 137.639 -68.3628 
1151 1151 1 0 113.777 -1.89404 112.439 
149 149 1 0 28.8993 178.111 26.8861 
1906 1906 2 0 -271.76 5.46806 69.3202 
801 801 1 0 34.016 -85.5896 18.8434 
1984 1984 2 0 121.205 40.412 240.119 
1759 1759 1 0 -182.367 349.256 -150.826 
3 3 1 0 123.277 -131.169 194.957 
1763 1763 1 0 -6.16074 90.174 62.9764 
491 491 1 0 33.2457 129.732 242.401 
1756 1756 2 0 80.0858 216.326 285.451 
1732 1732 2 0 125.152 88.5672 -21.0555 
592 592 2 0 -48.236 -2.96282 192.999 
1967 1967 1 0 343.867 -88.1713 196.163 
623 623 1 0 -47.2427 -42.9886 106.206 
1758 1758 2 0 -90.4351 265.78 148.743 
72 72 2 0 -6.34948 -38.7283 -18.6418 
504 504 2 0 34.5903 91.9811 64.0799 
1139 1139 1 0 -8.87991 -36.0135 241.404 
606 606 2 0 212.827 91.9722 -325.452 
1459 1459 1 0 255.501 -128.259 330.505 
1679 1679 1 0 -8.62649 -83.9786 26.417 
561 561 1 0 153.119 -83.5155 -16.4133 
1425 1425 1 0 194.339 214.333 74.5896 
1457 1457 1 0 -109.671 129.219 27.8792 
650 650 2 0 67.7783 0.131835 -102.796 
1987 1987 1 0 284.969 216.939 248.098 
998 998 2 0 21.5334 1.71556 160.013 
730 730 2 0 -106.97 -523.986 28.3771 
551 551 1 0 -240.647 -83.8016 -184.58 
1142 1142 2 0 106.423 93.2659 -140.943 
867 867 1 0 -63.4361 -299.199 74.7916 
1704 1704 2 0 285.362 6.25278 202.121 
519 519 1 0 -323.475 -89.7795 33.0037 
1101 1101 1 0 22.9779 89.6808 164.57 
454 454 2 0 -22.359 43.0777 120.825 
318 318 2 0 68.1912 86.73 -95.3976 
772 772 2 0 372.386 222.582 251.881 
833 833 1 0 -60.4901 2.86525 28.8317 
702 702 2 0 114.72 173.298 76.125 
1010 1010 2 0 161.662 -2.08432 -145.879 
1230 1230 2 0 72.9487 87.8546 -189.767 
357 357 1 0 -145.989 -44.7117 333.105 
1296 1296 2 0 29.5353 262.97 204.904 
434 434 2 0 75.6431 -388.255 -101.259 
803 803 1 0 -12.5953 42.748 74.272 
1416 1416 2 0 -99.6362 266.201 -143.148 
1591 1591 1 0 -189.92 48.8217 -11.6123 
359 359 1 0 -99.3434 260.01 121.351 
597 597 1 0 591.355 89.4361 77.6816 
324 324 2 0 73.8435 -212.501 207.61 
1812 1812 2 0 122.558 175.384 -100.404 
391 391 1 0 82.7285 45.1333 -13.3634 
89 89 1 0 -140.172 1.33864 32.4622 
169 169 1 0 -486.805 172.327 116.749 
875 875 1 0 211.138 129.076 -57.8062 
1616 1616 2 0 208.568 -46.5904 -16.3901 
572 572 2 0 210.865 47.2582 118.981 
1353 1353 1 0 251.417 5.21433 73.2008 
644 644 2 0 342.143 -125.442 115.58 
126 126 2 0 206.56 84.0242 206.534 
1412 1412 2 0 253.486 -44.352 -227.652 
904 904 2 0 39.6859 -173.544 119.859 
227 227 1 0 165.749 46.4266 -181.733 
880 880 2 0 -4.26195 177.157 35.2029 
1492 1492 2 0 34.2885 135.838 76.6419 
1657 1657 1 0 210.977 49.9392 78.1446 
590 590 2 0 -63.4945 213.907 -177.323 
1535 1535 1 0 241.68 213.803 166.653 
1495 1495 1 0 22.3709 259.906 -136.422 
1718 1718 2 0 24.1802 -214.662 37.49 
1746 1746 2 0 -66.3761 89.0274 -93.6556 
1042 1042 2 0 -68.2045 389.77 80.8948 
1641 1641 1 0 149.223 1.91637 83.2606 
1301 1301 1 0 111.321 6.29209 -135.405 
1749 1749 1 0 151.906 -81.4761 -50.4102 
961 961 1 0 61.7698 4.79097 -136.345 
85 85 1 0 23.0051 -85.9171 -263.478 
1297 1297 1 0 -197.458 220.556 43.5526 
1422 1422 2 0 23.6823 -257.16 42.9687 
1304 1304 2 0 21.4889 -129.56 0.194367 
558 558 2 0 -23.2102 302.405 -2.68571 
1817 1817 1 0 -107.258 -89.9383 260.669 
1073 1073 1 0 -67.9855 224.416 128.714 
319 319 1 0 239.5 -167.273 -129.604 
1687 1687 1 0 25.1891 -80.3117 -1.81014 
1134 1134 2 0 -239.593 4.99214 257.088 
81 81 1 0 156.055 -44.3022 125.867 
1462 1462 2 0 27.9797 390.487 -137.375 
550 550 2 0 -142.836 128.83 38.2249 
1123 1123 1 0 118.965 219.472 79.5512 
1434 1434 2 0 160.561 45.9128 430.11 
896 896 2 0 -102.665 -213.368 -49.4077 
1628 1628 2 0 244.777 6.80857 386.481 
1463 1463 1 0 202.327 -123.188 382.993 
527 527 1 0 -141.84 49.16 -49.9827 
1540 1540 2 0 25.5291 -173.288 86.0792 
1235 1235 1 0 -101.472 -43.5798 -45.7255 
584 584 2 0 115.145 90.3808 260.559 
1781 1781 1 0 162.019 -127.919 -0.974659 
1145 1145 1 0 -104.183 133.478 170.746 
1870 1870 2 0 26.4622 -89.7724 -348.939 
1085 1085 1 0 116.953 222.661 128.1 
1287 1287 1 0 36.6866 -176.783 -7.64906 
776 776 2 0 168.579 -86.768 210.079 
1780 1780 2 0 -52.503 -43.7489 35.8739 
862 862 2 0 -94.3002 128.964 -4.46336 
1751 1751 1 0 77.1721 46.1512 -47.4477 
1293 1293 1 0 384.692 2.47267 82.3972 
1650 1650 2 0 83.0768 91.8648 -4.92703 
766 766 2 0 121.955 5.46622 37.6957 
871 871 1 0 255.852 259.618 -45.5772 
303 303 1 0 -97.2505 259.715 171.1 
297 297 1 0 79.9339 259.281 0.530337 
768 768 2 0 165.832 88.8268 85.9931 
420 420 2 0 -4.29212 -214.407 -218.097 
124 124 2 0 77.0181 -124.687 -1.88388 
1029 1029 1 0 37.2312 -37.6572 -89.0067 
217 217 1 0 62.5076 -88.4592 -172.452 
829 829 1 0 -63.3773 173.274 176.774 
1688 1688 2 0 22.1325 -170.241 176.281 
1512 1512 2 0 239.896 41.2876 136.422 
1232 1232 2 0 -369.989 -1.06714 225.767 
535 535 1 0 194.213 130.701 222.702 
84 84 2 0 -104.972 -129.949 136.298 
1754 1754 2 0 -18.4905 214.147 -295.091 
573 573 1 0 -19.9021 304.99 -121.345 
374 374 2 0 62.272 133.176 3.94202 
1846 1846 2 0 282.553 -39.6348 -124.064 
57 57 1 0 24.0472 -80.9144 -122.159 
1569 1569 1 0 -21.1996 50.0747 91.0997 
847 847 1 0 235.867 92.1445 -79.8099 
1032 1032 2 0 -17.6314 170.996 306.16 
321 321 1 0 113.75 44.9709 262.996 
1568 1568 2 0 334.272 43.6843 175.152 
1951 1951 1 0 -101.247 214.24 -172.534 
255 255 1 0 25.6139 5.46503 88.4521 
1269 1269 1 0 -141.865 178.818 218.235 
47 47 1 0 202.335 -212.073 133.404 
262 262 2 0 -56.1414 1.29527 -81.9958 
61 61 1 0 -11.7707 171.119 91.1341 
1024 1024 2 0 28.3537 259.086 -125.831 
187 187 1 0 71.9096 43.9367 50.7965 
825 825 1 0 162.585 303.337 137.452 
1198 1198 2 0 26.3212 480.918 183.204 
765 765 1 0 156.072 394.414 -80.9737 
1904 1904 2 0 -17.6875 137.408 -298.487 
14 14 2 0 115.823 178.243 -166.672 
1013 1013 1 0 -142.733 7.43556 137.796 
1162 1162 2 0 118.584 49.1493 134.804 
418 418 2 0 -53.6857 214.92 174.757 
616 616 2 0 167.596 -42.1404 176.463 
351 351 1 0 33.8222 218.054 -84.6637 
787 787 1 0 212.426 -82.2496 -84.9353 
74 74 2 0 -138.497 -38.9632 -41.8997 
1201 1201 1 0 -90.5311 129.221 177.848 
982 982 2 0 208.701 -175.126 -82.5911 
1299 1299 1 0 123.544 -42.0954 -341.141 
1289 1289 1 0 211.483 131.952 270.069 
283 283 1 0 80.873 171.04 -36.7623 
390 390 2 0 -95.0855 259.193 9.05587 
494 494 2 0 251.018 2.13125 182.452 
1428 1428 2 0 39.8137 -40.4271 -211.95 
977 977 1 0 -53.2062 -170.671 48.934 
638 638 2 0 -93.8537 47.7622 7.94088 
958 958 2 0 338.244 267.316 136.868 
1363 1363 1 0 254.085 -124.866 -385.969 
1257 1257 1 0 20.4778 176.147 183.402 
595 595 1 0 236.176 214.117 54.5738 
1212 1212 2 0 -195.059 -46.4449 143.25 
201 201 1 0 -107.794 -133.172 234.439 
1093 1093 1 0 110.732 -44.3632 14.9757 
1387 1387 1 0 -67.784 174.946 15.2295 
411 411 1 0 -105.779 42.466 -31.8325 
846 846 2 0 -284.474 214.897 275.993 
486 486 2 0 195.072 0.453049 -117.892 
1996 1996 2 0 109.18 88.8545 102.795 
196 196 2 0 110.049 47.1539 -162.353 
106 106 2 0 25.2758 264.206 103.918 
291 291 1 0 105.385 50.0329 148.521 
652 652 2 0 65.1396 48.5124 -415.857 
1965 1965 1 0 151.653 91.7843 318.223 
853 853 1 0 -193.095 -253.172 276.306 
1948 1948 2 0 -67.2027 -124.274 11.3161 
1378 1378 2 0 -55.7968 -42.3045 270.722 
323 323 1 0 -11.5818 126.991 140.418 
1643 1643 1 0 27.6673 87.2512 227.973 
82 82 2 0 32.6747 179.152 9.97166 
1639 1639 1 0 289.86 47.8298 97.5206 
1369 1369 1 0 -16.1072 -86.3377 -70.9907 
448 448 2 0 29.017 132.882 57.0847 
720 720 2 0 70.4504 171.53 100.447 
42 42 2 0 160.648 -44.7072 -378.144 
341 341 1 0 73.3666 -89.4405 102.507 
417 417 1 0 242.653 -214.454 -116.512 
789 789 1 0 75.2642 -216.393 -115.119 
103 103 1 0 119.083 -257.198 360.026 
1974 1974 2 0 203.465 -215.891 -25.1622 
762 762 2 0 -104.23 -36.7529 54.9126 
810 810 2 0 31.0862 6.50756 -290.849 
544 544 2 0 -320.179 -211.007 -28.3164 
1582 1582 2 0 -141.53 4.09317 -27.1672 
48 48 2 0 -308.385 -45.1105 -120.04 
253 253 1 0 79.6001 7.34381 -164.011 
1618 1618 2 0 -140.645 -219.585 191.157 
1997 1997 1 0 -93.3812 84.8323 56.5877 
1214 1214 2 0 -53.7206 -89.785 100.95 
1091 1091 1 0 -4.10736 -2.71793 319.865 
1828 1828 2 0 -221.577 89.2273 59.6253 
723 723 1 0 -138.363 -41.6265 145.554 
507 507 1 0 250.928 260.481 142.191 
396 396 2 0 -5.68179 88.2146 12.9408 
1012 1012 2 0 80.1771 216.469 234.392 
1191 1191 1 0 82.8138 4.31389 228.72 
1681 1681 1 0 252.61 220.956 -75.0123 
269 269 1 0 256.17 136.086 -28.2092 
111 111 1 0 -138.345 267.538 -290.112 
1500 1500 2 0 253.129 439.063 -26.8191 
530 530 2 0 24.9652 -34.0549 65.5768 
431 431 1 0 65.1225 183.077 24.037 
887 887 1 0 -24.1004 227.234 63.3269 
69 69 1 0 153.884 225.363 106.031 
1552 1552 2 0 148.782 61.4818 22.9462 
1825 1825 1 0 -108.375 -157.427 -238.083 
642 642 2 0 152.635 185.397 -197.619 
20 20 2 0 108.298 -74.1652 22.6298 
579 579 1 0 -67.8617 58.0273 107.67 
1857 1857 1 0 -18.6364 -117.871 -61.9 
37 37 1 0 -61.953 -203.072 -282.178 
1928 1928 2 0 155.476 -113.164 283.689 
831 831 1 0 106.168 14.6139 -62.3005 
1548 1548 2 0 -107.872 -158.367 -198.148 
163 163 1 0 -67.6734 138.954 199.937 
612 612 2 0 239.83 -71.0898 69.0356 
1477 1477 1 0 -153.839 104.561 243.48 
1027 1027 1 0 156.267 7.81817 -61.4589 
473 473 1 0 158.44 -78.6549 108.52 
194 194 2 0 -142.131 9.75082 196.589 
1555 1555 1 0 -13.6928 -76.1618 193.496 
1609 1609 1 0 156.512 -249.291 193.135 
1440 1440 2 0 331.201 -31.6432 152.971 