ITEM: TIMESTEP
0
ITEM: NUMBER OF ATOMS
2000
ITEM: BOX BOUNDS pp pp pp
1.9591237436338893e+01 6.0408762563577184e+01
1.9591237436338893e+01 6.0408762563577184e+01
1.9591237436338893e+01 6.0408762563577184e+01
ITEM: ATOMS id mol type q xu yu zu 
1329 1329 1 0 305.561 61.1515 310.138 
1860 1860 2 0 -98.6164 -56.5427 106.699 
191 191 1 0 -18.9232 -262.592 145.385 
101 101 1 0 309.116 224.59 65.6848 
53 53 1 0 -97.232 147.039 225.839 
914 914 2 0 61.67 148.82 186.416 
728 728 2 0 -19.4595 104.48 148.789 
1790 1790 2 0 -97.8855 225.214 184.981 
1800 1800 2 0 -101.216 -143.039 143.593 
678 678 2 0 -14.7494 -140.827 -55.6158 
1179 1179 1 0 -177.725 107.194 68.0545 
436 436 2 0 182.973 -14.5413 142.407 
569 569 1 0 60.4698 -96.4619 271.206 
1007 1007 1 0 192.457 20.4854 147.859 
1509 1509 1 0 -135.735 -300.64 64.834 
939 939 1 0 68.3567 -18.5293 22.8872 
1730 1730 2 0 -93.1769 24.8065 -142.187 
543 543 1 0 -174.907 23.5288 190.349 
481 481 1 0 147.076 -13.0126 -140.183 
426 426 2 0 63.0103 69.2184 66.7743 
1880 1880 2 0 349.643 -95.68 -61.3803 
1690 1690 2 0 -59.8489 111.32 104.476 
366 366 2 0 -14.3275 -93.4489 148.449 
1061 1061 1 0 -256.204 28.3277 -183.023 
926 926 2 0 151.851 -136.285 26.6743 
1940 1940 2 0 312.182 149.696 305.625 
137 137 1 0 187.432 112.794 -15.9835 
953 953 1 0 -101.243 195.396 230.364 
1931 1931 1 0 -98.2081 111.726 347.058 
1069 1069 1 0 20.3764 236.278 20.154 
1424 1424 2 0 -217.887 -10.2824 104.303 
1322 1322 2 0 -93.9109 -131.651 -95.4504 
495 495 1 0 110.842 155.331 146.371 
1350 1350 2 0 -59.9641 -410.713 310.566 
1595 1595 1 0 144.792 -47.9774 145.829 
956 956 2 0 268.188 -85.4183 21.2788 
132 132 2 0 -56.7964 -85.2336 -57.3215 
929 929 1 0 25.8266 197.248 105.271 
1072 1072 2 0 -221.053 34.3403 -136.792 
571 571 1 0 265.623 -287.324 -183.394 
866 866 2 0 -21.0517 -46.4139 106.558 
1706 1706 2 0 -57.2692 33.8211 -428.475 
88 88 2 0 101.674 362.396 61.9487 
985 985 1 0 143.481 -4.2557 68.5686 
1382 1382 2 0 230.597 158.965 60.9767 
332 332 2 0 -13.9263 79.9162 -100.126 
410 410 2 0 27.6704 279.934 26.3522 
1892 1892 2 0 27.8316 -48.1607 -60.7763 
147 147 1 0 110.135 -168.001 104.747 
1349 1349 1 0 191.195 120.288 -219.27 
1498 1498 2 0 186.582 -179.484 28.6934 
957 957 1 0 -15.5361 -179.401 236.065 
1991 1991 1 0 23.8549 62.0993 113.223 
1041 1041 1 0 102.47 61.8461 -92.3786 
1601 1601 1 0 21.8376 147.39 -172.305 
1282 1282 2 0 23.433 -17.6479 238.456 
1964 1964 2 0 -61.0137 351.961 -46.61 
778 778 2 0 -180.276 510.916 -12.6057 
1596 1596 2 0 -143.28 267.221 -89.3555 
1673 1673 1 0 -223.387 61.2213 -46.0837 
578 578 2 0 108.294 144.27 -129.825 
1561 1561 1 0 67.3777 267.758 233.443 
1370 1370 2 0 -175.812 352.203 234.37 
874 874 2 0 192.752 102.481 110.773 
1097 1097 1 0 29.6815 22.756 -171.99 
1453 1453 1 0 28.2584 148.039 -7.07689 
1274 1274 2 0 -93.1035 186.149 -250.16 
1774 1774 2 0 61.9319 -176.809 29.2181 
1761 1761 1 0 24.5187 28.2466 -52.8831 
224 224 2 0 21.2243 192.041 -87.521 
915 915 1 0 -98.5931 230.518 -209.782 
521 521 1 0 -17.9026 69.0918 276.843 
1408 1408 2 0 148.732 -53.5072 195.259 
707 707 1 0 -133.74 69.6925 73.446 
1325 1325 1 0 28.1031 110.729 -93.1624 
784 784 2 0 -13.4426 191.838 158.033 
732 732 2 0 65.6215 194.436 -131.704 
965 965 1 0 -19.2421 -131.867 236.836 
338 338 2 0 21.9787 193.794 29.4003 
209 209 1 0 350.968 152.403 75.5295 
21 21 1 0 65.8392 72.4395 109.778 
1311 1311 1 0 27.5536 194.825 -211.238 
1546 1546 2 0 150.219 277.257 -173.796 
1449 1449 1 0 -19.1624 33.8895 -11.0249 
542 542 2 0 -15.5962 34.6323 70.7045 
911 911 1 0 -140.474 118.512 71.7447 
1465 1465 1 0 186.984 34.254 196.217 
1766 1766 2 0 65.9308 37.2046 34.3672 
858 858 2 0 -55.4206 119.322 276.082 
1676 1676 2 0 -184.043 238.456 -48.228 
1491 1491 1 0 143.032 37.7771 -7.51086 
710 710 2 0 -99.8792 202.463 158.169 
779 779 1 0 266.798 76.7353 -45.7961 
519 519 1 0 -302.614 -82.5066 32.5898 
1124 1124 2 0 -58.9988 325.25 69.4858 
1767 1767 1 0 60.4368 121.245 193.758 
1663 1663 1 0 -178.538 119.036 -176.302 
9 9 1 0 -13.7211 -6.01872 32.7701 
1175 1175 1 0 -53.1654 158.153 29.5968 
554 554 2 0 233.244 -3.31586 196.455 
1503 1503 1 0 28.782 -205.418 29.0612 
359 359 1 0 -92.7625 244.036 117.236 
834 834 2 0 186.023 228.836 -84.4702 
400 400 2 0 -98.0432 -60.1795 241.22 
1326 1326 2 0 -18.051 64.0584 83.5939 
1721 1721 1 0 23.8761 189.47 82.193 
1426 1426 2 0 61.0693 -179.539 163.044 
1957 1957 1 0 -18.7839 -223.466 -0.959069 
1357 1357 1 0 269.91 145.589 162.533 
1872 1872 2 0 26.1825 -179.933 2.37634 
1513 1513 1 0 24.9181 182.95 40.2907 
1057 1057 1 0 -136.996 64.9169 -4.64275 
1671 1671 1 0 -21.0503 23.2069 200.714 
559 559 1 0 -17.9079 223.767 83.9918 
49 49 1 0 -54.0482 62.5522 -43.3633 
1314 1314 2 0 28.1743 65.2034 285.255 
109 109 1 0 109.3 551.78 123.332 
134 134 2 0 192.339 -14.832 -85.269 
627 627 1 0 -11.2328 -178.786 -282.807 
1458 1458 2 0 229.01 29.4287 -81.7316 
1829 1829 1 0 -264.231 -11.9367 40.8027 
969 969 1 0 186.351 -93.7299 -3.03857 
1848 1848 2 0 107.428 312.383 79.216 
1656 1656 2 0 -265.698 312.728 282.935 
1978 1978 2 0 104.211 -94.5909 -37.5734 
59 59 1 0 150.802 -11.9867 120.719 
855 855 1 0 -95.1271 108.93 82.7834 
788 788 2 0 145.222 235.849 -1.44338 
118 118 2 0 142.528 -10.0122 -242.275 
1249 1249 1 0 146.876 -130.76 83.1666 
1443 1443 1 0 229.836 -173.001 -125.556 
1089 1089 1 0 -224.756 -51.1204 -84.8295 
1947 1947 1 0 19.5993 -49.1226 122.178 
1108 1108 2 0 63.5812 -49.018 36.0939 
220 220 2 0 70.1153 72.3662 37.1281 
457 457 1 0 190.71 31.7566 203.924 
260 260 2 0 21.8466 35.0632 161.686 
223 223 1 0 -97.2728 238.409 -123.745 
1284 1284 2 0 187.676 -44.3551 37.9281 
237 237 1 0 -140.636 -84.6647 204.305 
840 840 2 0 266.229 74.8419 -201.787 
1817 1817 1 0 -96.9527 -83.1399 247.077 
1423 1423 1 0 20.2723 37.9196 -206.539 
1779 1779 1 0 146.938 -127.331 43.3871 
695 695 1 0 -61.9404 -205.315 -121.186 
354 354 2 0 352.917 238.14 -45.5846 
188 188 2 0 191.066 -44.4501 -44.9745 
1771 1771 1 0 -54.8372 -3.33192 121.966 
312 312 2 0 109.235 -46.8439 -80.1683 
340 340 2 0 70.148 243.648 -1.81988 
1168 1168 2 0 191.816 197.707 -42.9215 
1870 1870 2 0 29.0867 -82.4608 -324.689 
1490 1490 2 0 20.7414 -56.6777 44.9395 
1536 1536 2 0 23.9341 -17.2353 294.207 
1613 1613 1 0 -20.1905 -57.3281 -114.851 
35 35 1 0 266.146 21.8059 -112.471 
625 625 1 0 22.9329 61.8583 -156.889 
313 313 1 0 23.9853 146.413 -117.351 
1926 1926 2 0 187.92 184.069 -112.062 
1310 1310 2 0 -178.441 -223.949 248.747 
769 769 1 0 264.948 -60.0072 -37.3359 
399 399 1 0 311.981 266.329 211.25 
932 932 2 0 19.8459 -56.936 256.298 
200 200 2 0 -135.792 105.965 209.858 
1484 1484 2 0 29.131 144.507 -118.572 
1869 1869 1 0 274.516 -381.988 211.836 
984 984 2 0 315.498 -140.826 129.84 
1392 1392 2 0 272.17 146.106 -194.566 
279 279 1 0 -256.894 -14.4763 92.8346 
1276 1276 2 0 -12.6612 102.235 -29.4839 
1805 1805 1 0 22.7735 67.5601 129.031 
1076 1076 2 0 -60.8617 149.828 -113.086 
1677 1677 1 0 -15.2408 26.9611 208.577 
1571 1571 1 0 -179.44 -93.037 132.429 
289 289 1 0 -259.824 -136.747 48.7196 
186 186 2 0 -178.629 -174.44 -319.968 
1556 1556 2 0 19.7518 -94.0656 46.3758 
1328 1328 2 0 66.2538 312.117 -151.908 
482 482 2 0 28.5708 28.3279 5.32606 
922 922 2 0 28.0484 29.0503 131.409 
382 382 2 0 65.7737 -130.391 89.2946 
1921 1921 1 0 103.163 111.823 11.329 
365 365 1 0 227.179 194.273 -199.604 
1461 1461 1 0 -18.5873 -51.4322 -114.734 
456 456 2 0 264.954 113.828 87.6046 
1499 1499 1 0 187.172 155.148 215.139 
1001 1001 1 0 -176.897 72.9624 91.7697 
1903 1903 1 0 69.0603 -49.9556 6.57894 
86 86 2 0 -11.5134 236.431 84.9609 
567 567 1 0 108.178 30.1256 -37.5417 
141 141 1 0 22.9541 -128.864 -198.768 
1684 1684 2 0 144.25 -47.7688 -113.889 
1429 1429 1 0 106.021 -4.95811 -71.9163 
1768 1768 2 0 104.048 78.207 211.473 
105 105 1 0 -222.947 79.3099 -152.603 
348 348 2 0 -178.935 161.997 294.322 
580 580 2 0 229.567 36.5681 87.5537 
751 751 1 0 187.261 121.21 46.0487 
362 362 2 0 -59.9938 -3.22068 -78.0708 
1372 1372 2 0 67.0037 74.2898 -118.157 
1127 1127 1 0 142.215 280.569 5.69729 
1801 1801 1 0 305.376 79.8409 87.7797 
271 271 1 0 149.927 -46.5003 -73.353 
1919 1919 1 0 152.026 116.617 -280.163 
1777 1777 1 0 150.533 -2.34284 -74.5306 
1605 1605 1 0 191.066 -125.203 92.1622 
1193 1193 1 0 313.64 37.4037 -118.776 
455 455 1 0 20.6086 -17.557 218.615 
1120 1120 2 0 64.7779 22.8226 -66.4909 
1171 1171 1 0 105.854 -141.91 140.67 
292 292 2 0 -97.6859 24.7804 99.6297 
1165 1165 1 0 269.711 -96.3008 -26.1473 
1594 1594 2 0 -101.606 102.85 -23.4656 
123 123 1 0 -59.8553 -14.8488 -64.7795 
993 993 1 0 186.535 23.7835 215.997 
1954 1954 2 0 103.966 -61.0395 13.0992 
1597 1597 1 0 -137.609 101.719 217.703 
381 381 1 0 -59.7409 -17.1421 -102.989 
705 705 1 0 148.957 309.231 53.728 
1530 1530 2 0 108.856 62.9097 56.7739 
1384 1384 2 0 -11.0594 146.184 95.8446 
1861 1861 1 0 68.9534 -15.7012 139.892 
375 375 1 0 111.038 305.968 58.7888 
446 446 2 0 -95.167 22.4368 141.93 
1234 1234 2 0 307.842 -54.6731 -68.9985 
923 923 1 0 65.1103 -12.3913 58.1213 
130 130 2 0 -60.6303 192.469 263.596 
1055 1055 1 0 -60.6129 -11.5562 259.908 
1907 1907 1 0 146.597 -11.0839 176.864 
1147 1147 1 0 -95.0666 355.942 134.819 
1622 1622 2 0 69.0437 -177.223 136.989 
94 94 2 0 111.049 232.371 140.152 
242 242 2 0 -265.669 113.705 -64.8806 
646 646 2 0 -17.354 113.459 -227.476 
1270 1270 2 0 -99.6699 73.6599 177.551 
1208 1208 2 0 26.2487 236.49 54.3405 
744 744 2 0 142.054 32.1988 -68.2749 
1317 1317 1 0 68.1874 -10.3474 100.9 
1125 1125 1 0 -11.0863 72.4891 17.0869 
138 138 2 0 26.6467 114.736 180.288 
920 920 2 0 70.519 -172.153 12.5552 
1739 1739 1 0 -54.6505 152.319 97.4426 
1853 1853 1 0 -138.43 -5.37131 217.319 
718 718 2 0 270.158 38.9332 56.6276 
310 310 2 0 185.553 -165.864 -145.584 
1083 1083 1 0 143.963 -87.6482 18.2128 
777 777 1 0 22.4708 241.704 95.9484 
1973 1973 1 0 -16.2783 158.225 57.8275 
549 549 1 0 106.559 283.76 257.23 
1476 1476 2 0 -19.1256 35.2952 11.8448 
1979 1979 1 0 264.968 35.2415 178.342 
898 898 2 0 101.495 -164.648 -66.0563 
201 201 1 0 -97.414 -123.713 223.405 
143 143 1 0 -94.9944 -208.439 -188.948 
1470 1470 2 0 354.552 79.4296 221.904 
1039 1039 1 0 -52.4083 35.2314 59.0073 
930 930 2 0 -94.3995 -5.82937 52.8368 
1863 1863 1 0 -94.3945 -42.0483 -149.461 
1960 1960 2 0 -98.1928 -283.052 -138.679 
959 959 1 0 -60.6265 126.157 105.83 
771 771 1 0 103.331 42.0321 67.3559 
999 999 1 0 22.9334 -117.974 61.8513 
1180 1180 2 0 -55.8719 124.631 347.95 
561 561 1 0 145.678 -75.9244 -14.2008 
1524 1524 2 0 25.1714 -122.715 189.64 
928 928 2 0 25.8496 -117.103 22.8344 
26 26 2 0 20.1053 -36.5367 109.271 
1744 1744 2 0 -20.3878 41.2343 145.902 
45 45 1 0 19.8529 84.4381 -183.107 
250 250 2 0 145.215 164.443 -61.6348 
749 749 1 0 -17.0842 121.965 22.8058 
197 197 1 0 -55.0246 -76.9374 230.187 
485 485 1 0 -54.1752 -162.105 24.2338 
395 395 1 0 -52.7979 85.2634 -181.885 
299 299 1 0 150.731 41.2312 -265.747 
1151 1151 1 0 109.316 1.65215 109.219 
841 841 1 0 -17.7401 333.778 -17.406 
1051 1051 1 0 188.859 90.3734 21.5681 
1489 1489 1 0 142.528 47.7115 188.649 
1058 1058 2 0 -96.4064 48.8524 392.546 
652 652 2 0 63.4765 48.7068 -388.085 
218 218 2 0 101.685 -75.394 103.498 
908 908 2 0 104.312 9.09816 67.1695 
1526 1526 2 0 110.623 292.202 24.416 
25 25 1 0 -175.444 129.257 -19.9676 
530 530 2 0 24.6998 -29.8025 64.6999 
431 431 1 0 62.666 175.664 25.8128 
69 69 1 0 145.4 215.356 102.428 
798 798 2 0 -183.095 91.572 105.092 
1027 1027 1 0 148.235 10.9021 -54.4325 
291 291 1 0 101.443 50.4558 142.743 
1609 1609 1 0 148.637 -232.259 183.969 
473 473 1 0 151.26 -71.9628 104.687 
700 700 2 0 233.511 10.5317 271.261 
852 852 2 0 110.176 132.369 -61.9889 
1825 1825 1 0 -98.9766 -145.293 -222.283 
20 20 2 0 104.776 -67.3996 23.2936 
579 579 1 0 -60.831 57.3592 102.694 
1857 1857 1 0 -15.7804 -108.397 -55.4973 
612 612 2 0 228.401 -64.2764 66.8114 
1552 1552 2 0 143.483 57.4545 24.5748 
1477 1477 1 0 -142.008 100.7 231.287 
887 887 1 0 -20.7439 217.26 63.0601 
37 37 1 0 -55.2626 -188.16 -262.785 
1928 1928 2 0 148.845 -103.231 268.857 
642 642 2 0 145.813 177.82 -184.155 
831 831 1 0 103.599 15.5252 -53.9582 
1440 1440 2 0 313.426 -27.891 146.589 
1438 1438 2 0 -11.7701 -230.423 62.2216 
1685 1685 1 0 -11.4701 -23.1352 63.7914 
706 706 2 0 109.605 261.525 189.248 
945 945 1 0 -13.6256 19.1042 20.5487 
343 343 1 0 230.822 223.419 150.052 
1425 1425 1 0 184.155 204.655 73.8901 
1457 1457 1 0 -100.971 124.142 29.912 
1987 1987 1 0 269.409 206.724 235.732 
998 998 2 0 22.6427 5.03579 152.348 
551 551 1 0 -223.307 -77.7807 -170.766 
1101 1101 1 0 24.2783 86.8361 157.424 
730 730 2 0 -96.7307 -489.778 29.8121 
702 702 2 0 107.434 165.46 75.6974 
650 650 2 0 65.2776 2.73986 -94.3239 
553 553 1 0 -11.1497 -77.0309 150.224 
1230 1230 2 0 67.4189 86.6553 -174.367 
833 833 1 0 -54.407 4.9118 33.2648 
1462 1462 2 0 29.2093 369.712 -128.976 
357 357 1 0 -135.012 -38.563 316.607 
1447 1447 1 0 -135.821 -122.766 73.8219 
867 867 1 0 -57.2556 -278.652 72.8599 
1704 1704 2 0 269.758 7.92103 192.066 
18 18 2 0 21.2436 -33.7854 -46.6794 
228 228 2 0 101.976 -278.223 -52.8987 
1142 1142 2 0 102.065 90.0723 -131.233 
772 772 2 0 353.012 211.962 238.882 
1591 1591 1 0 -176.393 48.6912 -9.33528 
149 149 1 0 28.1815 171.078 28.07 
156 156 2 0 107.176 92.1784 -9.81676 
1472 1472 2 0 -142.324 134.479 154.623 
447 447 1 0 -141.097 255.148 -92.9615 
1262 1262 2 0 186.74 91.5851 -7.10954 
401 401 1 0 148.737 -111.137 -46.3447 
1994 1994 2 0 -183.518 -30.2642 198.696 
1273 1273 1 0 355.244 -30.1124 -92.696 
522 522 2 0 151.331 133.32 114.77 
838 838 2 0 350.548 -150.17 29.3242 
475 475 1 0 -57.3751 135.702 114.707 
285 285 1 0 -17.413 -63.6132 -215.144 
1604 1604 2 0 147.889 139.057 236.375 
1239 1239 1 0 -100.299 56.1393 -9.38733 
1626 1626 2 0 -58.6835 260.826 -128.313 
1474 1474 2 0 21.6278 -22.1876 -8.22111 
1210 1210 2 0 -20.8033 -231.985 -52.9377 
172 172 2 0 230.137 56.8853 -93.6237 
906 906 2 0 -102.61 303.057 29.8789 
233 233 1 0 -183.975 136.445 35.3097 
859 859 1 0 65.3993 -21.6105 442.653 
1217 1217 1 0 60.6909 17.4684 198.564 
882 882 2 0 -13.6802 137.01 -6.25037 
1362 1362 2 0 -94.4665 263.008 75.0527 
17 17 1 0 -13.6467 13.4641 -50.4199 
415 415 1 0 110.393 -187.541 -50.3801 
1942 1942 2 0 67.6367 182.737 235.085 
1693 1693 1 0 69.2124 -149.513 -176.238 
1746 1746 2 0 -59.3617 87.3587 -84.5249 
1641 1641 1 0 143.863 2.60631 80.0304 
85 85 1 0 24.7599 -78.6801 -247.495 
1304 1304 2 0 23.7826 -118.426 0.506211 
558 558 2 0 -18.0828 286.341 1.2236 
1297 1297 1 0 -183.325 209.726 41.3246 
590 590 2 0 -55.3143 204.253 -164.018 
454 454 2 0 -18.3761 42.6853 117.649 
1422 1422 2 0 26.2156 -239.333 43.2117 
1495 1495 1 0 23.1568 244.488 -124.453 
1535 1535 1 0 230.015 203.348 159.115 
1540 1540 2 0 27.1936 -161.064 83.5545 
318 318 2 0 69.0509 83.2872 -84.9324 
1145 1145 1 0 -94.8958 126.744 162.446 
597 597 1 0 559.387 86.5115 77.3546 
1718 1718 2 0 25.798 -197.775 37.9535 
1134 1134 2 0 -220.957 7.43777 244.824 
1749 1749 1 0 145.994 -72.9024 -44.7448 
654 654 2 0 102.275 90.2059 38.88 
1073 1073 1 0 -60.6575 213.161 123.956 
1687 1687 1 0 26.9482 -72.9444 1.21206 
896 896 2 0 -93.5497 -196.773 -42.6285 
1820 1820 2 0 64.1466 -109.717 158.811 
6 6 2 0 -17.5389 -111.778 162.199 
488 488 2 0 60.7768 12.2544 43.4915 
1972 1972 2 0 187.286 -30.4845 247.516 
1409 1409 1 0 352.603 -28.745 82.0328 
1727 1727 1 0 61.0975 52.8817 79.4603 
1628 1628 2 0 233.404 10.5236 366.681 
1463 1463 1 0 192.413 -112.842 362.927 
1301 1301 1 0 108.035 9.5818 -124.699 
629 629 1 0 104.364 -27.4309 41.6838 
408 408 2 0 106.046 16.3088 122.392 
210 210 2 0 -99.323 -63.3477 119.304 
1640 1640 2 0 103.377 55.9825 79.0663 
304 304 2 0 -142.105 385.407 -122.558 
1480 1480 2 0 351.876 -66.6056 43.8731 
379 379 1 0 25.2082 178.669 -3.27586 
1515 1515 1 0 62.8931 57.0442 -78.9496 
1431 1431 1 0 189.678 222.226 287.817 
1804 1804 2 0 -55.1354 -144.594 37.2667 
1021 1021 1 0 233.657 12.9692 205.938 
1202 1202 2 0 -95.0789 257.731 405.498 
1466 1466 2 0 314.668 -24.775 37.1723 
1331 1331 1 0 231.806 259.925 203.994 
1052 1052 2 0 28.5212 -22.5593 162.515 
1688 1688 2 0 24.313 -158.232 169.362 
1512 1512 2 0 226.102 40.7586 130.326 
535 535 1 0 185.243 125.785 211.981 
573 573 1 0 -17.0235 287.464 -112.026 
374 374 2 0 62.1519 126.438 4.5718 
84 84 2 0 -97.5335 -120.715 129.376 
217 217 1 0 62.0333 -81.1162 -159.012 
829 829 1 0 -57.3744 165.7 166.929 
765 765 1 0 148.948 371.132 -72.4732 
1754 1754 2 0 -13.6662 204.909 -274.926 
1032 1032 2 0 -13.6478 163.392 290.323 
321 321 1 0 108.844 44.4133 249.98 
1024 1024 2 0 28.4516 246.398 -114.96 
14 14 2 0 110.931 168.222 -155.739 
1846 1846 2 0 268.408 -34.7824 -112.785 
1569 1569 1 0 -19.4129 47.7016 88.2595 
847 847 1 0 224.206 88.1734 -71.2532 
255 255 1 0 25.7756 8.18716 86.446 
319 319 1 0 227.027 -156.498 -118.925 
57 57 1 0 25.995 -73.8886 -111.048 
1337 1337 1 0 185.962 131.732 -30.1943 
1334 1334 2 0 23.6535 90.9617 -74.3573 
1904 1904 2 0 -14.1649 129.809 -277.592 
1013 1013 1 0 -133.73 7.51724 132.371 
47 47 1 0 192.064 -197.562 126.887 
816 816 2 0 185.65 -28.5216 294.445 
421 421 1 0 188.448 -110.119 -156.521 
206 206 2 0 352.333 92.3699 9.74583 
634 634 2 0 143.728 -71.8322 4.80717 
714 714 2 0 183.42 172.877 -32.4455 
994 994 2 0 110.765 -30.0146 133.205 
525 525 1 0 67.5889 338.444 -200.353 
1390 1390 2 0 150.314 132.711 292.251 
1696 1696 2 0 -133.789 254.686 125.832 
121 121 1 0 -99.5535 -272.75 -199.758 
234 234 2 0 24.4625 140.202 86.5373 
888 888 2 0 225.186 344.7 -198.666 
1036 1036 2 0 185.954 15.3917 210.998 
1813 1813 1 0 -56.5354 15.1389 131.735 
699 699 1 0 -59.7631 -66.5795 10.6709 
129 129 1 0 -140.711 -144.833 130.969 
2000 2000 2 0 66.7318 181.49 212.193 
686 686 2 0 -102.187 99.7421 133.645 
1231 1231 1 0 151.696 -103.265 8.37837 
830 830 2 0 191.92 179.156 -37.3464 
161 161 1 0 -136.724 56.2681 210.277 
1413 1413 1 0 191.035 -103.764 -35.5481 
1821 1821 1 0 -51.9223 -27.8712 -35.3364 
903 903 1 0 150.28 -350.202 10.7492 
1040 1040 2 0 109.634 -68.3968 90.0539 
1212 1212 2 0 -181.892 -40.8204 135.595 
1093 1093 1 0 106.702 -37.9319 18.1731 
411 411 1 0 -97.1363 42.0369 -27.0789 
846 846 2 0 -265.489 206.307 260.109 
486 486 2 0 186.722 3.71127 -107.133 
1996 1996 2 0 103.094 85.2804 99.7149 
196 196 2 0 106.73 45.2021 -150.929 
159 159 1 0 -58.7558 -81.0519 57.3541 
1257 1257 1 0 21.7006 167.175 175.609 
1948 1948 2 0 -61.4606 -116.747 14.7779 
622 622 2 0 101.388 -40.1229 140.775 
1369 1369 1 0 -12.3711 -77.6952 -63.0707 
417 417 1 0 230.982 -199.469 -107.204 
1643 1643 1 0 28.7384 83.7725 217.793 
720 720 2 0 68.3754 164.334 98.3116 
1198 1198 2 0 28.5027 454.222 175.445 
1965 1965 1 0 145.74 88.486 302.602 
582 582 2 0 -17.8644 374.381 176.486 
762 762 2 0 -96.6082 -32.9928 55.6534 
1182 1182 2 0 264.887 210.809 -144.873 
853 853 1 0 -178.664 -235.629 263.023 
1887 1887 1 0 -102.613 213.291 -108.122 
106 106 2 0 25.5839 250.966 101.091 
1487 1487 1 0 -52.5908 130.881 13.2829 
544 544 2 0 -298.506 -196.936 -23.4178 
680 680 2 0 105.831 -191.689 58.0916 
1691 1691 1 0 227.327 -71.2707 -108.256 
388 388 2 0 21.605 213.945 221.461 
770 770 2 0 61.9314 52.8302 12.0933 
672 672 2 0 189.725 10.6967 -109.342 
669 669 1 0 -12.6898 -112.104 -106.307 
1224 1224 2 0 70.4049 93.9143 95.4827 
1401 1401 1 0 269.032 -149.885 12.8288 
1388 1388 2 0 184.434 298.734 15.4384 
1488 1488 2 0 142.989 -68.8084 18.8249 
461 461 1 0 -179.504 -106.612 -228.309 
1624 1624 2 0 -60.3796 179.308 262.56 
967 967 1 0 -263.483 97.6089 177.197 
515 515 1 0 186.393 59.7987 -188.143 
1548 1548 2 0 -98.5325 -145.221 -184.9 
1961 1961 1 0 60.625 -267.487 341.4 
1910 1910 2 0 146.504 -145.754 -110.951 
1580 1580 2 0 -55.217 304.591 -64.7373 
1651 1651 1 0 151.375 -21.4473 -107.961 
90 90 2 0 -14.4197 139.036 -190.296 
1043 1043 1 0 26.7434 -27.3941 178.545 
1285 1285 1 0 29.7715 15.9483 94.982 
66 66 2 0 28.5191 53.9301 59.029 
2 2 2 0 -53.1365 -24.6323 98.145 
755 755 1 0 68.1999 95.4145 -69.9096 
966 966 2 0 149.013 97.5353 60.2775 
160 160 2 0 71.6136 -99.2096 64.8853 
1554 1554 2 0 234.261 -183.426 184.65 
29 29 1 0 -49.4335 -59.9823 -14.0758 
1652 1652 2 0 73.4351 148.028 67.4044 
1497 1497 1 0 73.4119 -180.821 102.69 
1755 1755 1 0 155.612 -20.4379 186.39 
1722 1722 2 0 117.704 25.7763 -14.1081 
936 936 2 0 75.9737 61.1082 66.7339 
458 458 2 0 279.562 148.577 -100.235 
1963 1963 1 0 78.5215 145.06 149.25 
1152 1152 2 0 -125.831 -179.618 64.6285 
1047 1047 1 0 201.122 61.3173 64.5357 
1046 1046 2 0 80.3213 -178.341 -136.753 
284 284 2 0 -86.4979 103.827 -142.041 
333 333 1 0 119.197 -56.215 224.542 
1135 1135 1 0 -88.1989 -17.3869 -57.3013 
794 794 2 0 162.044 142.824 143.18 
1004 1004 2 0 154.578 -14.329 60.665 
1131 1131 1 0 -172.674 67.3082 -99.1802 
476 476 2 0 152.45 29.4524 105.914 
1793 1793 1 0 72.5985 70.2084 149.7 
735 735 1 0 34.0693 -53.4223 -15.8942 
1557 1557 1 0 -207.527 27.8391 146.59 
722 722 2 0 -2.3548 -134.557 -101.482 
1741 1741 1 0 33.2238 70.0475 21.7597 
1090 1090 2 0 71.5719 113.16 184.116 
1446 1446 2 0 -171.217 194.613 65.3532 
626 626 2 0 -247.005 -293.574 -138.171 
603 603 1 0 -126.701 112.188 -177.835 
1814 1814 2 0 80.0666 -172.088 -19.0058 
1541 1541 1 0 -88.6639 318.686 -19.1977 
52 52 2 0 199.396 -132.466 104.501 
56 56 2 0 234.666 -85.5374 26.9723 
845 845 1 0 -8.77625 157.076 -219.989 
670 670 2 0 -254.65 34.9775 21 
1977 1977 1 0 -51.7228 -2.60084 61.4054 
942 942 2 0 -50.2405 -43.8709 -17.1635 
704 704 2 0 119.159 199.576 25.2006 
927 927 1 0 238.192 37.2303 -137.601 
1113 1113 1 0 120.705 -5.47765 60.6498 
1186 1186 2 0 -2.92576 -207.013 62.9327 
185 185 1 0 238.639 -44.4232 -141.052 
1313 1313 1 0 157.787 156.109 -56.2391 
377 377 1 0 -248.558 121.398 -15.7919 
1539 1539 1 0 281.765 75.2108 185.516 
1811 1811 1 0 80.2144 -286.626 313.352 
1406 1406 2 0 235.65 64.6999 151.884 
844 844 2 0 -50.0666 -177.946 196.354 
355 355 1 0 195.483 143.323 116.555 
1854 1854 2 0 155.268 20.2113 111.443 
1933 1933 1 0 114.748 146.629 -5.33055 
1694 1694 2 0 -129.914 186.202 154.792 
1899 1899 1 0 -1.25294 348.351 315.664 
222 222 2 0 117.211 62.6527 -46.5664 
1809 1809 1 0 -87.5494 145.201 69.5769 
1403 1403 1 0 120.748 -57.5371 277.424 
1238 1238 2 0 77.3627 -100.518 -90.7731 
23 23 1 0 -129.038 189.033 316.227 
1769 1769 1 0 -45.6626 -15.852 115.288 
1588 1588 2 0 37.7634 65.5409 -174.603 
15 15 1 0 -1.9389 102.604 33.9591 
1712 1712 2 0 -167.3 -143.561 -93.4784 
1617 1617 1 0 79.5051 65.4471 -168.194 
503 503 1 0 234.919 69.4647 -5.03644 
256 256 2 0 276.063 68.1043 -92.6559 
7 7 1 0 -293.165 273.693 -8.93317 
1339 1339 1 0 -41.7837 231.389 115.151 
795 795 1 0 74.9826 68.3313 198.27 
1533 1533 1 0 157.343 -12.2452 -134.771 
1922 1922 2 0 36.8936 68.4354 -9.23331 
1620 1620 2 0 38.2667 -12.3857 69.2449 
236 236 2 0 37.4017 -94.4808 -45.7399 
28 28 2 0 30.9361 71.6023 -133.036 
1888 1888 2 0 72.152 31.5959 115.714 
1092 1092 2 0 -1.01347 70.6448 -132.046 
429 429 1 0 -1.12953 -335.877 150.425 
251 251 1 0 -6.86574 72.7884 -257.741 
19 19 1 0 -45.7252 -214.696 33.6968 
1169 1169 1 0 243.3 112.625 -47.2958 
335 335 1 0 -6.98194 32.1877 -9.32342 
1354 1354 2 0 322.386 153.563 111.523 
311 311 1 0 276.238 200.665 30.313 
1851 1851 1 0 -51.0388 -47.6879 -90.7868 
1167 1167 1 0 -49.3383 119.359 34.8361 
1606 1606 2 0 112.061 -169.263 -209.912 
1945 1945 1 0 112.664 196.954 -94.3205 
742 742 2 0 117.46 -44.4729 197.43 
538 538 2 0 -42.323 -168.246 -7.22559 
661 661 1 0 34.1022 79.808 154.123 
384 384 2 0 121.32 -170.058 -214.257 
1962 1962 2 0 -47.6973 -5.2688 69.5235 
385 385 1 0 284.447 80.0706 74.2027 
1336 1336 2 0 404.458 155.771 114.434 
1157 1157 1 0 34.2982 155.997 -210.252 
988 988 2 0 -7.26784 198.871 113.71 
1203 1203 1 0 -4.20177 242 -12.8258 
1616 1616 2 0 196.752 -42.0916 -12.55 
651 651 1 0 200.101 117.959 316.731 
1642 1642 2 0 -289.417 115.793 -12.5274 
140 140 2 0 37.261 -82.4806 -10.02 
68 68 2 0 -213.563 224.391 80.6982 
1636 1636 2 0 154.11 -17.5799 -80.5731 
955 955 1 0 -50.3923 309.21 -2.32025 
1473 1473 1 0 -128.953 346.559 -44.0142 
1747 1747 1 0 35.2624 226.839 84.6039 
1196 1196 2 0 155.998 19.6167 166.193 
913 913 1 0 156.859 -141.427 -41.1483 
1587 1587 1 0 35.7369 -56.2817 241.562 
337 337 1 0 121.065 144.888 2.18768 
1189 1189 1 0 159.78 224.216 41.3497 
128 128 2 0 -85.297 -18.7309 -2.47237 
1355 1355 1 0 34.0545 66.1169 40.6358 
1136 1136 2 0 282.231 24.2912 41.0168 
1806 1806 2 0 238.548 -55.4429 -78.4582 
1976 1976 2 0 154.941 -14.2506 -2.99761 
1087 1087 1 0 -132.62 67.5281 81.559 
1164 1164 2 0 -50.0143 -11.0764 161.439 
1826 1826 2 0 -43.0572 26.7898 -1.859 
398 398 2 0 155.912 -12.245 82.4329 
1340 1340 2 0 35.5017 69.2963 -1.97929 
1529 1529 1 0 118.548 109.2 409.288 
790 790 2 0 -41.9903 151.856 287.911 
1155 1155 1 0 -50.8374 -48.547 -203.985 
1133 1133 1 0 196.103 317.136 -79.0279 
300 300 2 0 -51.6406 -10.912 -39.7072 
278 278 2 0 74.5487 -51.0481 -249.362 
944 944 2 0 -83.805 -7.94213 42.479 
367 367 1 0 75.1763 235.581 -82.3117 
1862 1862 2 0 280.999 -10.1464 43.1239 
432 432 2 0 77.7705 72.2667 -85.401 
1405 1405 1 0 -125.242 -51.1841 40.19 
1791 1791 1 0 -171.901 33.3304 78.592 
1879 1879 1 0 397.493 -3.97429 163.676 
1102 1102 2 0 235.9 -251.005 43.6881 
1005 1005 1 0 31.0192 -44.8356 -125.381 
98 98 2 0 236.8 -1.6344 39.8889 
1667 1667 1 0 34.3724 405.155 -79.7995 
107 107 1 0 -44.0834 77.0367 42.0217 
1843 1843 1 0 74.0507 -5.18078 -82.1793 
1335 1335 1 0 -4.54212 34.3229 -123.867 
598 598 2 0 198.332 -47.7393 124.214 
1287 1287 1 0 34.49 -164.366 -3.81517 
1669 1669 1 0 -124.126 120.499 81.0578 
1396 1396 2 0 120.921 -86.6413 38.7283 
1272 1272 2 0 35.8858 -2.89182 -42.0691 
1132 1132 2 0 442.459 35.9811 -330.316 
1886 1886 2 0 119.551 79.0516 159.125 
687 687 1 0 -125.967 34.7458 -4.73985 
1946 1946 2 0 -8.40906 -183.745 90.6569 
41 41 1 0 -48.8409 148.774 -116.227 
1121 1121 1 0 275.322 -99.2302 92.4295 
618 618 2 0 -171.724 -99.1719 -36.0327 
531 531 1 0 -91.1462 264.862 127.902 
1884 1884 2 0 277.966 -98.919 89.7892 
63 63 1 0 78.5207 188.392 -37.3576 
1898 1898 2 0 161.153 -15.1009 292.754 
679 679 1 0 35.6838 -19.4407 -31.0922 
632 632 2 0 36.7783 19.7615 -118.553 
1045 1045 1 0 34.6053 -182.983 128.71 
1837 1837 1 0 -2.48039 226.574 128.039 
1823 1823 1 0 117.697 -16.0653 91.0178 
1705 1705 1 0 76.4392 24.4429 46.8682 
1352 1352 2 0 79.9647 103.928 172.173 
1900 1900 2 0 -166.597 -143.639 170.63 
536 536 2 0 31.1283 29.2038 293.22 
1347 1347 1 0 153.425 69.838 174.342 
1715 1715 1 0 -131.825 28.0456 248.466 
962 962 2 0 -7.53598 108.415 50.6148 
171 171 1 0 76.7123 -176.376 89.3036 
992 992 2 0 -2.54782 -95.1239 -71.383 
1078 1078 2 0 -170.025 -133.97 86.9161 
1385 1385 1 0 78.0231 69.1478 86.2318 
577 577 1 0 -1.73716 -256.244 48.418 
470 470 2 0 -46.1058 -11.5379 51.4867 
212 212 2 0 317.391 -8.6519 5.79584 
811 811 1 0 -336.853 72.8573 50.082 
620 620 2 0 -3.81482 32.4362 212.257 
1183 1183 1 0 116.643 73.4627 -158.301 
925 925 1 0 283.289 31.0513 92.7804 
602 602 2 0 79.3901 -91.0048 4.74882 
13 13 1 0 33.8888 -91.39 -73.4028 
656 656 2 0 153.952 -84.8243 496.824 
1925 1925 1 0 -132.693 -45.9223 213.863 
1944 1944 2 0 -9.35591 38.0696 85.1272 
342 342 2 0 -130.127 34.3459 48.796 
1158 1158 2 0 -1.93597 34.4354 -234.566 
346 346 2 0 121.467 -0.95101 -116.327 
1242 1242 2 0 -45.0691 -124.122 -33.4251 
1031 1031 1 0 202.992 -85.5277 -236.911 
719 719 1 0 200.346 78.9454 -159.13 
1901 1901 1 0 241.797 -128.525 290.344 
1849 1849 1 0 -207.724 -125.914 10.5733 
599 599 1 0 -126.85 362.322 48.4592 
1150 1150 2 0 -88.2778 -4.68264 4.88415 
1735 1735 1 0 -168.591 238.25 -70.9326 
1680 1680 2 0 -211.124 -85.0789 50.7283 
418 418 2 0 -47.4652 203.181 167.973 
1351 1351 1 0 113.08 -61.4228 -191.751 
108 108 2 0 236.047 -264.979 -25.1266 
1983 1983 1 0 -50.2419 -98.8548 -63.8039 
178 178 2 0 235.931 271.123 176.271 
305 305 1 0 73.6491 183.147 182.561 
1468 1468 2 0 -43.7581 267.578 -103.976 
807 807 1 0 324.604 -55.6809 -190.642 
633 633 1 0 280.494 -55.3673 -69.2372 
1923 1923 1 0 -43.8748 -262.659 52.7685 
960 960 2 0 -87.7251 106.238 18.5031 
489 489 1 0 75.8901 184.71 -105.374 
87 87 1 0 -48.193 -180.298 15.0222 
1634 1634 2 0 -3.86617 -98.7954 -107.276 
1750 1750 2 0 -84.4725 142.815 423.38 
424 424 2 0 -88.7103 186.768 460.591 
1501 1501 1 0 406.296 -137.593 17.0929 
800 800 2 0 34.8171 224.691 -190.662 
214 214 2 0 -173.452 110.99 300.442 
413 413 1 0 -212.563 230.946 -24.41 
708 708 2 0 -130.758 233.728 222.527 
352 352 2 0 118.973 110.636 299.534 
1345 1345 1 0 38.2451 -52.57 58.3689 
369 369 1 0 319.506 -11.7813 95.1886 
1178 1178 2 0 35.8875 190.062 -106.469 
65 65 1 0 35.4797 191.4 60.2294 
263 263 1 0 -211.925 -89.299 -104.104 
16 16 2 0 -48.8941 276.99 -107.406 
1866 1866 2 0 -293.514 -9.08253 256.507 
12 12 2 0 36.1185 31.6389 60.2935 
1834 1834 2 0 120.718 32.2496 137.225 
1211 1211 1 0 117.536 72.9146 54.2229 
1318 1318 2 0 79.948 114.072 -22.6506 
1320 1320 2 0 320.953 -10.6322 -24.3039 
1707 1707 1 0 -8.24723 77.8502 -62.8844 
1504 1504 2 0 -296.38 -47.2664 55.7386 
1103 1103 1 0 -132.626 241.691 546.489 
1938 1938 2 0 153.166 78.6942 12.4701 
1389 1389 1 0 32.5494 75.8316 -110.005 
837 837 1 0 -126.891 33.5497 -24.2998 
329 329 1 0 -3.64032 76.1311 54.3065 
1278 1278 2 0 115.229 -87.0288 -25.0888 
281 281 1 0 280.595 -83.6622 141.702 
1126 1126 2 0 243.534 35.3268 261.297 
1997 1997 1 0 -85.9977 77.8534 57.2507 
48 48 2 0 -288.283 -43.0808 -108.745 
1988 1988 2 0 39.1359 79.5758 59.3247 
1214 1214 2 0 -47.8829 -83.3836 97.8749 
1410 1410 2 0 116.393 160.201 -272.509 
1316 1316 2 0 -46.1071 116.988 141.717 
997 997 1 0 112.641 162.613 -178.082 
1380 1380 2 0 -92.0509 329.202 -15.7414 
842 842 2 0 -51.2418 -163.05 63.5044 
980 980 2 0 -9.21757 -75.9989 -181.752 
1759 1759 1 0 -171.612 331.895 -137.549 
1631 1631 1 0 -48.5577 84.1938 22.8938 
1974 1974 2 0 194.645 -201.151 -20.9003 
1618 1618 2 0 -130.166 -204.154 183.866 
491 491 1 0 33.3533 124.454 230.647 
592 592 2 0 -45.0968 0.176259 184.993 
1984 1984 2 0 115.524 40.1809 228.105 