ITEM: TIMESTEP
80000
ITEM: NUMBER OF ATOMS
4000
ITEM: BOX BOUNDS pp pp pp
-7.9523840713484417e-01 5.1656065646189937e+01
-7.9523840713484417e-01 5.1656065646189937e+01
-7.9523840713484417e-01 5.1656065646189937e+01
ITEM: ATOMS id mol type q xs ys zs 
1004 1004 1 0 0.102871 0.069589 0.0764141 
1154 1154 1 0 0.0561055 0.0723404 0.0207686 
2650 2650 2 0 0.10008 0.0265854 0.0200788 
3333 3333 2 0 0.0573258 0.0180637 0.0720365 
2239 2239 2 0 0.0979446 0.0199026 0.123387 
2190 2190 2 0 0.0571494 0.0737614 0.122834 
1080 1080 1 0 0.0521777 0.0166879 0.172967 
3966 3966 2 0 0.10294 0.0676737 0.177097 
1409 1409 1 0 0.0562667 0.115451 0.176135 
2406 2406 2 0 0.00489588 0.0708449 0.17592 
1972 1972 1 0 0.100312 0.122517 0.127457 
3675 3675 2 0 0.0489416 0.124135 0.0796795 
2597 2597 2 0 0.100354 0.121893 0.0315194 
716 716 1 0 0.00378636 0.118872 0.127612 
2242 2242 2 0 0.000397169 0.217533 0.12774 
1141 1141 1 0 0.411613 0.174066 0.175757 
1284 1284 1 0 0.458545 0.17634 0.116067 
1996 1996 1 0 0.151135 0.0181239 0.0861956 
183 183 1 0 0.152547 0.0636601 0.0310854 
2764 2764 2 0 0.201455 0.070614 0.0731389 
3813 3813 2 0 0.205031 0.0230491 0.0298987 
655 655 1 0 0.156842 0.0771153 0.122556 
2276 2276 2 0 0.207699 0.0215486 0.125942 
1147 1147 1 0 0.160122 0.01815 0.173169 
3332 3332 2 0 0.199832 0.071255 0.173936 
2015 2015 2 0 0.199773 0.124971 0.0296297 
1648 1648 1 0 0.154628 0.117694 0.17523 
757 757 1 0 0.205958 0.120995 0.130245 
3433 3433 2 0 0.149045 0.122076 0.0766823 
861 861 1 0 0.256598 0.019894 0.0825962 
1426 1426 1 0 0.249299 0.0757932 0.0255326 
3130 3130 2 0 0.249882 0.124697 0.0802149 
333 333 1 0 0.250553 0.0272038 0.175695 
1263 1263 1 0 0.253063 0.127443 0.177521 
2522 2522 2 0 0.250584 0.0711006 0.122619 
531 531 1 0 0.357987 0.0245361 0.0813406 
963 963 1 0 0.297241 0.0777111 0.0707091 
1158 1158 1 0 0.361383 0.0746404 0.0335941 
2282 2282 2 0 0.305564 0.0235266 0.0321481 
3331 3331 2 0 0.346227 0.0704701 0.128984 
1145 1145 1 0 0.308738 0.0166602 0.127461 
1292 1292 1 0 0.359454 0.0228037 0.1791 
3207 3207 2 0 0.295851 0.077388 0.174831 
789 789 1 0 0.309659 0.124108 0.125485 
3001 3001 2 0 0.355656 0.120684 0.0796689 
2363 2363 2 0 0.361796 0.125092 0.165804 
2802 2802 2 0 0.291794 0.12529 0.0246097 
802 802 1 0 0.449351 0.067277 0.0211108 
1335 1335 1 0 0.408418 0.0728736 0.078838 
3714 3714 2 0 0.400098 0.0185497 0.0196138 
2568 2568 2 0 0.452074 0.0226079 0.0704136 
2178 2178 2 0 0.455272 0.0722402 0.123474 
2182 2182 2 0 0.406523 0.0243164 0.128118 
1448 1448 1 0 0.407037 0.0737713 0.17353 
2180 2180 2 0 0.453375 0.0150205 0.180574 
1373 1373 1 0 0.410156 0.120926 0.122714 
543 543 1 0 0.458817 0.11835 0.172122 
2818 2818 2 0 0.404656 0.122509 0.0255905 
2749 2749 2 0 0.460228 0.120993 0.0639837 
507 507 1 0 0.458197 0.17319 0.0256528 
2961 2961 2 0 0.409313 0.219463 0.123568 
293 293 1 0 0.050285 0.170133 0.0262727 
302 302 1 0 0.105062 0.172574 0.0744992 
3030 3030 2 0 0.100053 0.216306 0.0225771 
3762 3762 2 0 0.0534673 0.21823 0.0747842 
2010 2010 2 0 0.10037 0.220222 0.1248 
2453 2453 2 0 0.0519237 0.168139 0.131625 
1658 1658 1 0 0.0501521 0.213379 0.180005 
3809 3809 2 0 0.110794 0.169753 0.178438 
1305 1305 1 0 0.403349 0.219047 0.0298998 
1738 1738 1 0 0.1524 0.220535 0.0798028 
1845 1845 1 0 0.200664 0.170407 0.0820027 
2188 2188 2 0 0.207324 0.22904 0.0185801 
3220 3220 2 0 0.155731 0.17801 0.0305103 
2962 2962 2 0 0.149053 0.170859 0.12495 
475 475 1 0 0.199971 0.223757 0.134871 
1508 1508 1 0 0.1541 0.220691 0.18105 
3632 3632 2 0 0.199934 0.173509 0.178247 
2173 2173 2 0 0.241678 0.222281 0.083541 
1873 1873 1 0 0.24856 0.175629 0.029411 
3189 3189 2 0 0.253949 0.230958 0.177656 
834 834 1 0 0.254404 0.177521 0.131321 
2290 2290 2 0 0.310742 0.182531 0.166616 
1146 1146 1 0 0.34218 0.170238 0.0261619 
1930 1930 1 0 0.30311 0.170411 0.0789823 
2351 2351 2 0 0.302114 0.222476 0.0217472 
2846 2846 2 0 0.346692 0.219564 0.0703155 
1756 1756 1 0 0.359466 0.173928 0.120271 
128 128 1 0 0.303989 0.228405 0.118629 
696 696 1 0 0.36176 0.225178 0.170757 
2526 2526 2 0 0.406423 0.169669 0.0757036 
2127 2127 2 0 0.454955 0.229134 0.0774178 
2072 2072 2 0 0.462299 0.217861 0.178255 
2839 2839 2 0 0.0042999 0.167433 0.177936 
1077 1077 1 0 -1.0168e-05 0.168701 0.0816864 
2825 2825 2 0 0.0108549 0.0242087 0.0263793 
3011 3011 2 0 0.499528 0.226533 0.0246202 
2105 2105 2 0 0.00778432 0.0649486 0.0789009 
374 374 1 0 0.00823028 0.119218 0.0284112 
2335 2335 2 0 0.0556211 0.073565 0.233629 
3504 3504 2 0 0.0992518 0.0182366 0.222398 
3089 3089 2 0 0.0974303 0.0164295 0.323596 
1906 1906 1 0 0.0517471 0.0190698 0.272246 
1675 1675 1 0 0.106046 0.0768323 0.277521 
2730 2730 2 0 0.054219 0.0685132 0.325144 
763 763 1 0 0.107667 0.0694258 0.372029 
1720 1720 1 0 0.057811 0.02068 0.375386 
3148 3148 2 0 0.0586841 0.121495 0.283616 
1351 1351 1 0 0.104079 0.119776 0.221068 
3316 3316 2 0 0.113498 0.12827 0.323276 
570 570 1 0 0.00600546 0.170414 0.283519 
1569 1569 1 0 0.452012 0.219394 0.38029 
3589 3589 2 0 0.409416 0.175741 0.273581 
402 402 1 0 0.0482039 0.117118 0.372395 
1334 1334 1 0 0.458861 0.17031 0.225337 
3919 3919 2 0 0.410179 0.22566 0.22292 
118 118 1 0 0.205662 0.0217352 0.223862 
2332 2332 2 0 0.155527 0.0800017 0.233034 
3883 3883 2 0 0.146527 0.0232406 0.280238 
744 744 1 0 0.207024 0.0752447 0.277991 
1871 1871 1 0 0.203788 0.0192187 0.3198 
2461 2461 2 0 0.161511 0.0804925 0.324763 
3067 3067 2 0 0.154878 0.017363 0.36844 
769 769 1 0 0.20408 0.0696513 0.37507 
1876 1876 1 0 0.20773 0.124871 0.328704 
1285 1285 1 0 0.159322 0.123002 0.375165 
833 833 1 0 0.165177 0.125192 0.277453 
3213 3213 2 0 0.255882 0.117569 0.27621 
171 171 1 0 0.203154 0.122117 0.218618 
3098 3098 2 0 0.252463 0.119853 0.377529 
883 883 1 0 0.253361 0.0747506 0.326186 
3125 3125 2 0 0.249118 0.0749738 0.226279 
461 461 1 0 0.251913 0.0220331 0.272388 
3624 3624 2 0 0.255899 0.0256688 0.373204 
2866 2866 2 0 0.35997 0.0727236 0.220996 
2947 2947 2 0 0.298307 0.0259362 0.22467 
138 138 1 0 0.306167 0.0765259 0.270927 
987 987 1 0 0.347288 0.0221723 0.269027 
2601 2601 2 0 0.352824 0.0747408 0.319125 
3665 3665 2 0 0.303901 0.0256957 0.327064 
1288 1288 1 0 0.354952 0.0164904 0.374447 
1744 1744 1 0 0.302233 0.0725478 0.375726 
741 741 1 0 0.3144 0.12545 0.218976 
1175 1175 1 0 0.457957 0.0674392 0.220377 
2266 2266 2 0 0.40325 0.02599 0.231035 
394 394 1 0 0.457146 0.0236535 0.270201 
528 528 1 0 0.454981 0.0702368 0.316869 
1316 1316 1 0 0.406589 0.0786564 0.271841 
2230 2230 2 0 0.411429 0.0183632 0.32251 
1059 1059 1 0 0.460859 0.019724 0.37544 
2850 2850 2 0 0.399899 0.0645238 0.372178 
3775 3775 2 0 0.462166 0.120155 0.271621 
3369 3369 2 0 0.408759 0.115818 0.325562 
3054 3054 2 0 0.402977 0.127985 0.225574 
181 181 1 0 0.457202 0.119808 0.376117 
830 830 1 0 0.452322 0.165202 0.32293 
2419 2419 2 0 0.405149 0.166825 0.368707 
2893 2893 2 0 0.103736 0.218507 0.230093 
3984 3984 2 0 0.0518681 0.170815 0.235158 
1818 1818 1 0 0.0563756 0.228018 0.27517 
1974 1974 1 0 0.103252 0.172581 0.274022 
2458 2458 2 0 0.0545847 0.174136 0.32702 
3015 3015 2 0 0.106012 0.227166 0.32482 
1469 1469 1 0 0.102817 0.177663 0.372265 
3519 3519 2 0 0.0551778 0.221415 0.381269 
356 356 1 0 0.00737872 0.0677043 0.279467 
914 914 1 0 0.409482 0.22099 0.327898 
917 917 1 0 0.208369 0.224908 0.223131 
2828 2828 2 0 0.160114 0.171039 0.230794 
1 1 1 0 0.210446 0.219358 0.325142 
1025 1025 1 0 0.161377 0.216133 0.28087 
3456 3456 2 0 0.164132 0.172287 0.330334 
3688 3688 2 0 0.213413 0.170339 0.275483 
2511 2511 2 0 0.207554 0.170465 0.37887 
3248 3248 2 0 0.165074 0.222681 0.374751 
247 247 1 0 0.363232 0.127819 0.278623 
2951 2951 2 0 0.261499 0.221194 0.371311 
1758 1758 1 0 0.304808 0.121772 0.321481 
1464 1464 1 0 0.355671 0.1215 0.372988 
922 922 1 0 0.257255 0.173219 0.327682 
2967 2967 2 0 0.252656 0.226429 0.275628 
2080 2080 2 0 0.309692 0.173105 0.373005 
1925 1925 1 0 0.357677 0.223082 0.367074 
893 893 1 0 0.256876 0.180693 0.225902 
2964 2964 2 0 0.304834 0.225658 0.223747 
1618 1618 1 0 0.358083 0.174353 0.213684 
1035 1035 1 0 0.359273 0.221969 0.273167 
1815 1815 1 0 0.307163 0.225299 0.3246 
2301 2301 2 0 0.311843 0.175525 0.266856 
3199 3199 2 0 0.358379 0.174814 0.323282 
2734 2734 2 0 0.457248 0.225351 0.274088 
1980 1980 1 0 0.0112633 0.0172925 0.324849 
1125 1125 1 0 0.00785982 0.118843 0.234431 
3703 3703 2 0 0.00609281 0.223534 0.325227 
2739 2739 2 0 0.00541721 0.167921 0.372069 
2524 2524 2 0 0.00711444 0.221658 0.230898 
397 397 1 0 0.106048 0.0696721 0.473752 
1616 1616 1 0 0.100562 0.0203772 0.426111 
3397 3397 2 0 0.0515134 0.0705339 0.422236 
3856 3856 2 0 0.0555821 0.0239447 0.472664 
1483 1483 1 0 0.104347 0.0258362 0.523835 
1577 1577 1 0 0.0510266 0.0238283 0.574256 
2786 2786 2 0 0.102934 0.0689718 0.581013 
2938 2938 2 0 0.0535135 0.0713842 0.521359 
3851 3851 2 0 0.106276 0.116644 0.518315 
827 827 1 0 0.0589718 0.116761 0.568754 
139 139 1 0 0.0081207 0.0155637 0.524632 
952 952 1 0 0.00252238 0.118986 0.516602 
1038 1038 1 0 0.0612721 0.119528 0.470082 
3325 3325 2 0 0.103663 0.117168 0.416186 
1016 1016 1 0 0.00383274 0.216438 0.426438 
1613 1613 1 0 0.458225 0.220039 0.482087 
792 792 1 0 0.209927 0.0192242 0.420361 
2304 2304 2 0 0.156278 0.0138775 0.477153 
3386 3386 2 0 0.209853 0.0695688 0.472684 
3537 3537 2 0 0.153262 0.0651619 0.42357 
1166 1166 1 0 0.155374 0.0246899 0.567369 
1987 1987 1 0 0.204968 0.0257489 0.521914 
2914 2914 2 0 0.210716 0.0709034 0.571727 
3615 3615 2 0 0.154829 0.0724792 0.519715 
1447 1447 1 0 0.156573 0.117987 0.578166 
1244 1244 1 0 0.207615 0.125925 0.520931 
3863 3863 2 0 0.207481 0.122777 0.424305 
1036 1036 1 0 0.153728 0.114679 0.468345 
2121 2121 2 0 0.255077 0.0228838 0.47498 
91 91 1 0 0.258533 0.0715104 0.427165 
202 202 1 0 0.260459 0.0190015 0.574739 
2580 2580 2 0 0.25475 0.120668 0.573802 
1612 1612 1 0 0.25412 0.0718414 0.519558 
196 196 1 0 0.307178 0.0747151 0.472441 
947 947 1 0 0.356873 0.0210885 0.479021 
3691 3691 2 0 0.308553 0.0225655 0.427492 
3820 3820 2 0 0.354563 0.0722808 0.427366 
322 322 1 0 0.35569 0.0241095 0.574319 
1822 1822 1 0 0.306801 0.0732277 0.571567 
3452 3452 2 0 0.304731 0.0271587 0.51798 
3988 3988 2 0 0.354489 0.083287 0.522272 
2204 2204 2 0 0.299883 0.122273 0.423359 
3969 3969 2 0 0.299449 0.126397 0.521841 
1290 1290 1 0 0.351609 0.125262 0.580206 
651 651 1 0 0.348785 0.130364 0.475824 
619 619 1 0 0.407616 0.0212359 0.430826 
3359 3359 2 0 0.455304 0.0695294 0.428916 
3853 3853 2 0 0.455787 0.0149867 0.474433 
3925 3925 2 0 0.403129 0.0717148 0.480448 
1226 1226 1 0 0.459975 0.0662357 0.513993 
1887 1887 1 0 0.406244 0.0211802 0.52487 
2810 2810 2 0 0.458458 0.0281008 0.574563 
3628 3628 2 0 0.405264 0.0687248 0.57088 
3020 3020 2 0 0.462076 0.115576 0.580233 
699 699 1 0 0.410163 0.119329 0.522998 
101 101 1 0 0.406246 0.11298 0.416713 
1718 1718 1 0 0.452166 0.120996 0.47252 
2666 2666 2 0 0.0149529 0.218246 0.529554 
1167 1167 1 0 0.40529 0.222741 0.431132 
1289 1289 1 0 0.0628897 0.216137 0.468151 
3506 3506 2 0 0.111778 0.16786 0.469886 
3531 3531 2 0 0.112797 0.225278 0.422023 
3842 3842 2 0 0.0534378 0.166698 0.418833 
924 924 1 0 0.0642856 0.169156 0.523134 
1521 1521 1 0 0.0672583 0.214812 0.57501 
2147 2147 2 0 0.105947 0.220696 0.52269 
3489 3489 2 0 0.109001 0.163946 0.57157 
785 785 1 0 0.463283 0.163233 0.528493 
246 246 1 0 0.154114 0.173225 0.41757 
728 728 1 0 0.213589 0.223222 0.425085 
753 753 1 0 0.156911 0.221666 0.468233 
2896 2896 2 0 0.203688 0.174733 0.473114 
391 391 1 0 0.149543 0.216048 0.572626 
1204 1204 1 0 0.198059 0.221502 0.529348 
2854 2854 2 0 0.203698 0.16743 0.570423 
3487 3487 2 0 0.153259 0.169408 0.52211 
84 84 1 0 0.253516 0.168479 0.425536 
2392 2392 2 0 0.254119 0.12279 0.474732 
3120 3120 2 0 0.249871 0.22157 0.575395 
2660 2660 2 0 0.25534 0.227643 0.474537 
710 710 1 0 0.254011 0.173417 0.520523 
3123 3123 2 0 0.301455 0.226284 0.525276 
766 766 1 0 0.308891 0.225034 0.42159 
946 946 1 0 0.305644 0.179722 0.471417 
1539 1539 1 0 0.357413 0.221357 0.47929 
3385 3385 2 0 0.355605 0.178685 0.426028 
1807 1807 1 0 0.358981 0.219831 0.569877 
1944 1944 1 0 0.297684 0.176943 0.577393 
2741 2741 2 0 0.357201 0.168699 0.530063 
3126 3126 2 0 0.447623 0.16775 0.425185 
2969 2969 2 0 0.407258 0.219831 0.524118 
3676 3676 2 0 0.458949 0.215385 0.57052 
2943 2943 2 0 0.400663 0.169324 0.477601 
643 643 1 0 0.406835 0.175649 0.57607 
1152 1152 1 0 0.00424685 0.0137867 0.427074 
3105 3105 2 0 0.00768986 0.165282 0.571507 
2331 2331 2 0 0.0123936 0.171659 0.475791 
66 66 1 0 0.00603361 0.119955 0.425924 
2890 2890 2 0 0.505608 0.215711 0.428227 
3254 3254 2 0 0.00288302 0.0673285 0.573824 
3603 3603 2 0 0.0503092 0.0702382 0.635058 
1095 1095 1 0 0.0967698 0.0250779 0.632535 
38 38 1 0 0.106376 0.0172899 0.725509 
3861 3861 2 0 0.0500736 0.0234614 0.681728 
2497 2497 2 0 0.10327 0.073888 0.683153 
3122 3122 2 0 0.0495278 0.0760129 0.725808 
1064 1064 1 0 0.105761 0.0670942 0.767963 
2782 2782 2 0 0.0501936 0.0214875 0.771945 
169 169 1 0 0.101685 0.121122 0.622907 
375 375 1 0 0.0532958 0.1148 0.777146 
3315 3315 2 0 0.0546127 0.12618 0.669431 
3997 3997 2 0 0.00699684 0.223594 0.624745 
671 671 1 0 0.00269095 0.0235261 0.7274 
1256 1256 1 0 0.456941 0.21378 0.679123 
2393 2393 2 0 0.000730159 0.07387 0.778468 
2338 2338 2 0 0.499229 0.168939 0.779936 
408 408 1 0 0.2042 0.0180523 0.631961 
3840 3840 2 0 0.149398 0.0731728 0.633212 
1599 1599 1 0 0.155907 0.0633097 0.719493 
2113 2113 2 0 0.152017 0.0128453 0.676309 
2814 2814 2 0 0.201331 0.0709942 0.672515 
3172 3172 2 0 0.20753 0.0167534 0.720245 
1364 1364 1 0 0.204379 0.0660662 0.767485 
3243 3243 2 0 0.154849 0.0211381 0.770866 
1879 1879 1 0 0.210239 0.125297 0.7206 
1057 1057 1 0 0.203576 0.122957 0.630352 
3339 3339 2 0 0.152054 0.112669 0.778178 
2884 2884 2 0 0.15739 0.123462 0.676658 
784 784 1 0 0.258164 0.0224875 0.674759 
298 298 1 0 0.249694 0.0186604 0.771407 
2504 2504 2 0 0.257725 0.0643289 0.726211 
3012 3012 2 0 0.259569 0.0647296 0.624774 
2205 2205 2 0 0.308202 0.0152955 0.622742 
2254 2254 2 0 0.351857 0.0720053 0.620055 
261 261 1 0 0.308162 0.0692369 0.671852 
1217 1217 1 0 0.358222 0.0215919 0.67231 
2383 2383 2 0 0.304765 0.0108718 0.723194 
3061 3061 2 0 0.355268 0.0695355 0.722177 
897 897 1 0 0.309073 0.0630989 0.768755 
3986 3986 2 0 0.355299 0.0142422 0.769277 
1626 1626 1 0 0.301679 0.117036 0.722175 
2918 2918 2 0 0.354169 0.125433 0.672914 
3168 3168 2 0 0.254509 0.119041 0.775761 
2630 2630 2 0 0.359276 0.123751 0.773394 
928 928 1 0 0.299503 0.123328 0.622067 
3143 3143 2 0 0.257637 0.112914 0.671731 
3179 3179 2 0 0.410986 0.0171992 0.619681 
1566 1566 1 0 0.461966 0.0699692 0.627649 
7 7 1 0 0.404786 0.0673099 0.666288 
658 658 1 0 0.456159 0.0682283 0.71928 
2292 2292 2 0 0.460079 0.0190415 0.667444 
2865 2865 2 0 0.406399 0.0176554 0.724351 
703 703 1 0 0.397256 0.0627257 0.773874 
3582 3582 2 0 0.449658 0.0229189 0.778085 
2727 2727 2 0 0.449968 0.117811 0.677584 
511 511 1 0 0.40037 0.119426 0.720229 
2277 2277 2 0 0.444041 0.11481 0.770193 
787 787 1 0 0.452429 0.165618 0.727073 
2217 2217 2 0 0.101654 0.122316 0.730378 
2423 2423 2 0 0.00284613 0.218515 0.720684 
2644 2644 2 0 0.0517741 0.168602 0.619799 
2713 2713 2 0 0.111166 0.221911 0.625203 
473 473 1 0 0.0531024 0.213268 0.671618 
846 846 1 0 0.0544036 0.167937 0.721434 
1127 1127 1 0 0.10574 0.16612 0.674079 
2281 2281 2 0 0.0998679 0.216436 0.717143 
1009 1009 1 0 0.0577796 0.21991 0.783564 
1366 1366 1 0 0.107816 0.168644 0.776691 
2475 2475 2 0 0.00430473 0.168507 0.679307 
94 94 1 0 0.411582 0.171014 0.778275 
3345 3345 2 0 0.150266 0.167149 0.624425 
1971 1971 1 0 0.195155 0.216423 0.622043 
337 337 1 0 0.152154 0.223836 0.678463 
623 623 1 0 0.153266 0.173367 0.719945 
3662 3662 2 0 0.200464 0.22357 0.728387 
3865 3865 2 0 0.20358 0.1764 0.678207 
2831 2831 2 0 0.202321 0.167959 0.769279 
3721 3721 2 0 0.146311 0.222435 0.773031 
1576 1576 1 0 0.249319 0.219733 0.779957 
339 339 1 0 0.251259 0.224122 0.674268 
513 513 1 0 0.256438 0.176661 0.723918 
2437 2437 2 0 0.245303 0.174454 0.622895 
2972 2972 2 0 0.347658 0.226354 0.779145 
2700 2700 2 0 0.35621 0.176277 0.620562 
3846 3846 2 0 0.29757 0.22486 0.626407 
28 28 1 0 0.351255 0.16849 0.725436 
953 953 1 0 0.355759 0.217555 0.678148 
2287 2287 2 0 0.302187 0.223923 0.73087 
2657 2657 2 0 0.302408 0.167332 0.676433 
2763 2763 2 0 0.302042 0.165278 0.769739 
1777 1777 1 0 0.455155 0.171308 0.620957 
2005 2005 2 0 0.406579 0.21932 0.732145 
1265 1265 1 0 0.4046 0.123077 0.624185 
3595 3595 2 0 0.404657 0.170949 0.680046 
2958 2958 2 0 0.407004 0.216098 0.633486 
2673 2673 2 0 0.452277 0.223135 0.779537 
1012 1012 1 0 0.495968 0.0747074 0.775155 
2061 2061 2 0 0.00893951 0.169044 0.77305 
2037 2037 2 0 0.503188 0.11819 0.72508 
2112 2112 2 0 0.0528812 0.0673492 0.8223 
3117 3117 2 0 0.106351 0.0227603 0.82206 
1719 1719 1 0 0.0478776 0.0190267 0.876101 
2581 2581 2 0 0.106008 0.0678462 0.87272 
1413 1413 1 0 0.0544101 0.0717107 0.923382 
1870 1870 1 0 0.0543346 0.0157896 0.974001 
2159 2159 2 0 0.101463 0.019742 0.928864 
2641 2641 2 0 0.101726 0.0753431 0.974025 
1746 1746 1 0 0.107159 0.122801 0.828555 
1989 1989 1 0 0.105161 0.114763 0.917981 
3825 3825 2 0 0.408711 0.170152 0.880037 
1702 1702 1 0 0.0497597 0.122067 0.978017 
2171 2171 2 0 0.452643 0.219887 0.878709 
1053 1053 1 0 0.453196 0.168923 0.928276 
875 875 1 0 0.00575074 0.120377 0.824748 
3614 3614 2 0 0.0108596 0.075394 0.874579 
3694 3694 2 0 0.40518 0.218731 0.825256 
244 244 1 0 0.156025 0.0643409 0.82172 
2584 2584 2 0 0.20739 0.0201562 0.824847 
2489 2489 2 0 0.156973 0.0212288 0.875504 
2531 2531 2 0 0.205342 0.0690369 0.867451 
155 155 1 0 0.16051 0.0181818 0.977674 
1706 1706 1 0 0.1532 0.0617067 0.927159 
2143 2143 2 0 0.197411 0.0720597 0.977561 
2875 2875 2 0 0.207602 0.0182892 0.92486 
549 549 1 0 0.205743 0.119235 0.820769 
1144 1144 1 0 0.201923 0.116078 0.924542 
2244 2244 2 0 0.158699 0.114972 0.87481 
3019 3019 2 0 0.151733 0.124569 0.978553 
991 991 1 0 0.253344 0.118953 0.870413 
46 46 1 0 0.260807 0.0265126 0.870235 
404 404 1 0 0.260774 0.0652308 0.817498 
3170 3170 2 0 0.252425 0.0705541 0.920269 
984 984 1 0 0.253776 0.0268416 0.971421 
1008 1008 1 0 0.350132 0.0678711 0.827979 
3602 3602 2 0 0.307915 0.0166253 0.813815 
472 472 1 0 0.307546 0.0778225 0.876714 
782 782 1 0 0.355481 0.0254685 0.882701 
3551 3551 2 0 0.302522 0.0262932 0.927947 
20 20 1 0 0.309321 0.0747341 0.988041 
1682 1682 1 0 0.352751 0.0178241 0.972702 
2665 2665 2 0 0.350863 0.0749969 0.929081 
2688 2688 2 0 0.300638 0.125127 0.823221 
1721 1721 1 0 0.302999 0.119116 0.937027 
1219 1219 1 0 0.357092 0.131107 0.877946 
2551 2551 2 0 0.353179 0.123452 0.981461 
1624 1624 1 0 0.451793 0.0724776 0.822802 
3954 3954 2 0 0.397814 0.0187714 0.82853 
3568 3568 2 0 0.449712 0.0173666 0.878065 
2245 2245 2 0 0.399399 0.0748708 0.879131 
1580 1580 1 0 0.448634 0.0131238 0.975383 
1112 1112 1 0 0.400454 0.0765301 0.972714 
1337 1337 1 0 0.450032 0.0718011 0.922543 
2724 2724 2 0 0.404219 0.0167504 0.928123 
2686 2686 2 0 0.454974 0.116882 0.976278 
3873 3873 2 0 0.455113 0.118976 0.87589 
1545 1545 1 0 0.402397 0.121636 0.923969 
3313 3313 2 0 0.402479 0.121358 0.829812 
962 962 1 0 0.00497947 0.21575 0.822653 
898 898 1 0 0.405481 0.217725 0.927001 
2172 2172 2 0 0.055424 0.124004 0.872108 
2128 2128 2 0 0.405623 0.172154 0.974898 
2229 2229 2 0 0.45257 0.217182 0.975686 
3068 3068 2 0 0.10716 0.212489 0.825731 
3355 3355 2 0 0.0522291 0.168718 0.825065 
1492 1492 1 0 0.103388 0.170809 0.880897 
1349 1349 1 0 0.0527937 0.220812 0.871015 
406 406 1 0 0.049515 0.222095 0.976325 
1227 1227 1 0 0.102585 0.16707 0.977196 
2921 2921 2 0 0.101354 0.221452 0.932283 
3166 3166 2 0 0.0518007 0.17869 0.920358 
398 398 1 0 0.00414909 0.16746 0.874389 
957 957 1 0 0.157922 0.163629 0.825275 
3309 3309 2 0 0.200367 0.22191 0.823312 
1880 1880 1 0 0.157125 0.219854 0.877395 
3839 3839 2 0 0.202653 0.168614 0.880589 
754 754 1 0 0.200552 0.179687 0.975527 
818 818 1 0 0.152402 0.222309 0.977276 
1665 1665 1 0 0.154701 0.172708 0.927399 
2529 2529 2 0 0.205949 0.231184 0.924315 
292 292 1 0 0.252574 0.16962 0.828327 
2440 2440 2 0 0.253228 0.220814 0.971042 
441 441 1 0 0.241442 0.121909 0.978081 
1872 1872 1 0 0.249904 0.219756 0.874983 
2024 2024 2 0 0.255583 0.160828 0.920514 
3692 3692 2 0 0.34992 0.227962 0.969184 
1882 1882 1 0 0.347375 0.171404 0.823151 
3636 3636 2 0 0.299325 0.216828 0.822861 
2203 2203 2 0 0.360462 0.219955 0.87199 
1565 1565 1 0 0.302259 0.166513 0.873119 
853 853 1 0 0.300915 0.225868 0.921531 
1750 1750 1 0 0.301705 0.17334 0.975604 
3634 3634 2 0 0.34496 0.177358 0.923911 
508 508 1 0 0.453939 0.173756 0.828497 
3460 3460 2 0 0.00249216 0.0747847 0.976413 
842 842 1 0 0.00399667 0.0184397 0.821931 
3570 3570 2 0 0.00340622 0.167852 0.974806 
969 969 1 0 0.501527 0.12455 0.828515 
2721 2721 2 0 0.00599001 0.0243317 0.93258 
1267 1267 1 0 0.503083 0.215457 0.829944 
2131 2131 2 0 0.00688316 0.123166 0.923019 
53 53 1 0 0.498859 0.219846 0.92363 
760 760 1 0 -3.17847e-06 0.217726 0.93402 
1105 1105 1 0 0.500108 0.0259465 0.822415 
1477 1477 1 0 0.104959 0.320701 0.0246819 
1735 1735 1 0 0.103806 0.270571 0.0827631 
1862 1862 1 0 0.0553935 0.327766 0.0790635 
3933 3933 2 0 0.0591199 0.266999 0.0270576 
3128 3128 2 0 0.100172 0.325603 0.126472 
3255 3255 2 0 0.0529756 0.268742 0.124467 
711 711 1 0 0.0999476 0.270878 0.170647 
888 888 1 0 0.0522239 0.320609 0.181241 
3078 3078 2 0 0.0527018 0.365027 0.0240777 
712 712 1 0 0.104339 0.369599 0.0791389 
129 129 1 0 0.105501 0.375089 0.175507 
1851 1851 1 0 0.400717 0.423777 0.125132 
2720 2720 2 0 0.00450421 0.416541 0.132048 
2340 2340 2 0 0.0567413 0.375645 0.12971 
3907 3907 2 0 0.448838 0.422283 0.0750183 
1555 1555 1 0 0.407844 0.473461 0.0732652 
1205 1205 1 0 0.454828 0.420107 0.17481 
3080 3080 2 0 0.0040395 0.32155 0.0257034 
539 539 1 0 0.204496 0.276544 0.0729218 
939 939 1 0 0.200893 0.325298 0.0302625 
3246 3246 2 0 0.147983 0.26993 0.0284441 
3282 3282 2 0 0.154598 0.319073 0.0776638 
3917 3917 2 0 0.152075 0.269881 0.126844 
3526 3526 2 0 0.198335 0.319694 0.132354 
1536 1536 1 0 0.150231 0.312037 0.175491 
3043 3043 2 0 0.204926 0.273865 0.178357 
1968 1968 1 0 0.208979 0.364158 0.0859599 
3593 3593 2 0 0.152385 0.376118 0.0295111 
2118 2118 2 0 0.157668 0.373343 0.130973 
2608 2608 2 0 0.258003 0.319219 0.0759286 
894 894 1 0 0.211594 0.372502 0.178655 
1327 1327 1 0 0.256665 0.27201 0.0301952 
1396 1396 1 0 0.250771 0.271132 0.125248 
274 274 1 0 0.257197 0.366449 0.0303138 
3365 3365 2 0 0.256639 0.315151 0.176148 
1314 1314 1 0 0.355119 0.277796 0.0196715 
2320 2320 2 0 0.305523 0.323683 0.0222781 
3157 3157 2 0 0.358349 0.319958 0.077705 
3208 3208 2 0 0.310692 0.274323 0.0723983 
825 825 1 0 0.310975 0.323609 0.122277 
886 886 1 0 0.358684 0.268042 0.120079 
823 823 1 0 0.305902 0.273118 0.180185 
2903 2903 2 0 0.35489 0.318911 0.171095 
1474 1474 1 0 0.306874 0.370866 0.177758 
3844 3844 2 0 0.355086 0.375164 0.1277 
3993 3993 2 0 0.260911 0.3675 0.1259 
2288 2288 2 0 0.30253 0.373721 0.0763056 
2712 2712 2 0 0.404555 0.376749 0.172276 
349 349 1 0 0.453734 0.324341 0.0762065 
1838 1838 1 0 0.447296 0.267848 0.0222128 
3180 3180 2 0 0.405884 0.319563 0.0271123 
3406 3406 2 0 0.406232 0.273675 0.0746435 
1274 1274 1 0 0.403464 0.318643 0.124632 
494 494 1 0 0.454118 0.274317 0.127018 
1186 1186 1 0 0.450175 0.324357 0.170047 
3673 3673 2 0 0.406278 0.275006 0.172734 
1191 1191 1 0 0.452348 0.475461 0.0216202 
3298 3298 2 0 0.403595 0.427168 0.0270848 
264 264 1 0 0.0971069 0.471807 0.0781869 
1102 1102 1 0 0.101908 0.418094 0.0320159 
1804 1804 1 0 0.0570924 0.474318 0.0250286 
2862 2862 2 0 0.0575471 0.419822 0.0789586 
3836 3836 2 0 0.105286 0.427649 0.128883 
3831 3831 2 0 0.0539692 0.470208 0.131699 
1235 1235 1 0 0.0568187 0.420901 0.179299 
1728 1728 1 0 0.101616 0.474877 0.174831 
2221 2221 2 0 0.404998 0.466633 0.178865 
413 413 1 0 0.496853 0.46934 0.074967 
3992 3992 2 0 0.448094 0.468587 0.129954 
909 909 1 0 0.156217 0.421563 0.0804611 
1024 1024 1 0 0.200859 0.467784 0.0671745 
2877 2877 2 0 0.149067 0.469233 0.0219952 
3116 3116 2 0 0.21038 0.414841 0.0286469 
1353 1353 1 0 0.156013 0.4748 0.118085 
3232 3232 2 0 0.210901 0.41453 0.127748 
835 835 1 0 0.157243 0.424904 0.173141 
1142 1142 1 0 0.20173 0.479605 0.177592 
598 598 1 0 0.350719 0.373492 0.0293395 
685 685 1 0 0.253667 0.473965 0.0266377 
3812 3812 2 0 0.253627 0.46904 0.126662 
687 687 1 0 0.254904 0.418693 0.0776814 
1332 1332 1 0 0.258394 0.422658 0.174392 
1084 1084 1 0 0.349738 0.466816 0.0208282 
1213 1213 1 0 0.303341 0.469183 0.075995 
3420 3420 2 0 0.294711 0.420205 0.0268507 
3963 3963 2 0 0.352812 0.428299 0.078107 
548 548 1 0 0.302222 0.421972 0.122354 
3295 3295 2 0 0.344924 0.476353 0.127293 
221 221 1 0 0.353634 0.426028 0.171362 
3379 3379 2 0 0.303454 0.474244 0.180739 
3771 3771 2 0 0.447794 0.369837 0.122172 
1830 1830 1 0 0.396794 0.372471 0.0750965 
3374 3374 2 0 0.45646 0.371678 0.026559 
3304 3304 2 0 0.00566609 0.314147 0.130545 
1090 1090 1 0 0.000182592 0.367336 0.173627 
1808 1808 1 0 0.00642894 0.371611 0.0771485 
2129 2129 2 0 0.0128027 0.423111 0.0298403 
1919 1919 1 0 0.007925 0.46982 0.0809998 
1526 1526 1 0 0.498988 0.321185 0.0266481 
929 929 1 0 0.00476406 0.470543 0.17679 
582 582 1 0 0.0030978 0.263935 0.177828 
2386 2386 2 0 0.0576895 0.264438 0.220871 
2923 2923 2 0 0.104928 0.317118 0.222151 
1239 1239 1 0 0.103487 0.273688 0.271556 
1607 1607 1 0 0.0644789 0.276937 0.325115 
2116 2116 2 0 0.114596 0.325783 0.326958 
3169 3169 2 0 0.0576833 0.324281 0.269199 
2989 2989 2 0 0.0533034 0.320868 0.381113 
944 944 1 0 0.109597 0.269962 0.373681 
1092 1092 1 0 0.0984491 0.37086 0.376453 
1598 1598 1 0 0.104755 0.370814 0.271524 
3035 3035 2 0 0.454153 0.41903 0.271511 
575 575 1 0 0.00674883 0.366285 0.273953 
49 49 1 0 0.0575116 0.358958 0.326519 
2776 2776 2 0 0.055939 0.372307 0.222614 
921 921 1 0 0.00529886 0.373365 0.375372 
3749 3749 2 0 0.0173663 0.413167 0.317407 
1408 1408 1 0 0.206858 0.326677 0.225532 
2965 2965 2 0 0.15149 0.269749 0.226537 
995 995 1 0 0.207422 0.311046 0.324221 
1516 1516 1 0 0.157441 0.320209 0.2755 
2753 2753 2 0 0.201318 0.271653 0.268925 
3927 3927 2 0 0.156751 0.269479 0.31792 
1660 1660 1 0 0.162029 0.316263 0.369856 
2485 2485 2 0 0.210425 0.271785 0.379429 
2585 2585 2 0 0.151746 0.363127 0.225754 
2450 2450 2 0 0.210595 0.363255 0.370618 
688 688 1 0 0.21419 0.37291 0.276494 
2240 2240 2 0 0.162336 0.371357 0.319402 
1435 1435 1 0 0.26079 0.272798 0.324438 
47 47 1 0 0.259284 0.315495 0.376489 
790 790 1 0 0.252552 0.275499 0.226742 
3392 3392 2 0 0.266752 0.324296 0.270774 
1455 1455 1 0 0.315234 0.324108 0.222802 
670 670 1 0 0.365035 0.275426 0.223116 
120 120 1 0 0.31109 0.321902 0.326138 
1699 1699 1 0 0.314347 0.275363 0.268565 
2375 2375 2 0 0.360514 0.326534 0.281437 
3608 3608 2 0 0.357262 0.273054 0.32352 
3663 3663 2 0 0.306084 0.271024 0.375112 
1086 1086 1 0 0.361072 0.315987 0.373937 
3253 3253 2 0 0.352449 0.374227 0.325014 
2523 2523 2 0 0.302275 0.372467 0.381519 
1466 1466 1 0 0.308655 0.379599 0.274526 
3726 3726 2 0 0.259322 0.377447 0.223241 
2166 2166 2 0 0.258652 0.364969 0.324323 
2307 2307 2 0 0.354675 0.37673 0.223319 
1501 1501 1 0 0.452078 0.277027 0.22397 
1043 1043 1 0 0.403849 0.328748 0.224949 
9 9 1 0 0.452635 0.272046 0.326375 
1868 1868 1 0 0.40691 0.318075 0.328509 
2733 2733 2 0 0.454745 0.323239 0.276229 
2806 2806 2 0 0.408098 0.271763 0.276141 
2209 2209 2 0 0.403963 0.266518 0.382454 
1892 1892 1 0 0.458823 0.321017 0.38132 
2578 2578 2 0 0.407652 0.360424 0.379503 
3619 3619 2 0 0.451629 0.365349 0.326944 
373 373 1 0 0.407522 0.37275 0.273437 
2966 2966 2 0 0.452366 0.37384 0.221726 
3702 3702 2 0 0.00371449 0.263028 0.376433 
3018 3018 2 0 -0.0032227 0.464692 0.27328 
1676 1676 1 0 0.00528276 0.313425 0.324706 
2945 2945 2 0 0.107087 0.423467 0.218995 
3631 3631 2 0 0.0549979 0.475763 0.219287 
81 81 1 0 0.0571345 0.427719 0.266081 
2807 2807 2 0 0.105916 0.412076 0.321975 
3293 3293 2 0 0.10916 0.480067 0.273076 
3545 3545 2 0 0.0599232 0.472618 0.322076 
1817 1817 1 0 0.0557022 0.422352 0.370581 
3553 3553 2 0 0.112916 0.466703 0.376038 
3666 3666 2 0 0.00443401 0.467139 0.374482 
955 955 1 0 0.404752 0.419611 0.228286 
1724 1724 1 0 0.156992 0.475677 0.229613 
2834 2834 2 0 0.207858 0.427796 0.220872 
144 144 1 0 0.152491 0.416291 0.369922 
1543 1543 1 0 0.15995 0.411467 0.268799 
1546 1546 1 0 0.20785 0.471643 0.273798 
1751 1751 1 0 0.210367 0.427918 0.331012 
3375 3375 2 0 0.1582 0.467058 0.3208 
2441 2441 2 0 0.209176 0.476246 0.383833 
2054 2054 2 0 0.258966 0.430167 0.280784 
1381 1381 1 0 0.262941 0.477548 0.232337 
2618 2618 2 0 0.253931 0.478721 0.329824 
50 50 1 0 0.25707 0.42484 0.37617 
1809 1809 1 0 0.303658 0.419281 0.32722 
3514 3514 2 0 0.3074 0.475372 0.279345 
648 648 1 0 0.356573 0.466808 0.323347 
1768 1768 1 0 0.359786 0.407324 0.384069 
3985 3985 2 0 0.358799 0.420761 0.277768 
1278 1278 1 0 0.307494 0.420678 0.222753 
1723 1723 1 0 0.350593 0.470002 0.231132 
3292 3292 2 0 0.307375 0.473316 0.372123 
2285 2285 2 0 0.400492 0.464173 0.372364 
1978 1978 1 0 0.451211 0.468879 0.324029 
1067 1067 1 0 0.410792 0.415832 0.324835 
1150 1150 1 0 0.40557 0.468999 0.273196 
3376 3376 2 0 0.45376 0.41594 0.375579 
3715 3715 2 0 0.455829 0.472287 0.231207 
258 258 1 0 0.502449 0.370325 0.270075 
3086 3086 2 0 0.00238118 0.322939 0.223133 
108 108 1 0 0.0477091 0.321579 0.474415 
532 532 1 0 0.0595885 0.270499 0.423535 
3413 3413 2 0 0.105843 0.266555 0.471638 
3799 3799 2 0 0.107492 0.32283 0.42134 
866 866 1 0 0.0578422 0.326344 0.568109 
1130 1130 1 0 0.0597469 0.267385 0.520557 
2474 2474 2 0 0.0988419 0.275741 0.572248 
3321 3321 2 0 0.100777 0.31809 0.515142 
2087 2087 2 0 0.101006 0.375156 0.57315 
3597 3597 2 0 0.00887943 0.263056 0.474151 
2370 2370 2 0 0.0521671 0.36874 0.429543 
3430 3430 2 0 0.00619177 0.314475 0.524407 