ITEM: TIMESTEP
0
ITEM: NUMBER OF ATOMS
2000
ITEM: BOX BOUNDS pp pp pp
5.3704472032230051e+00 4.9629552796755235e+01 #xmin xmax
5.3704472032230051e+00 4.9629552796755235e+01 #ymin ymax
5.3704472032230051e+00 4.9629552796755235e+01 #zmin zmax
ITEM: ATOMS id mol type q xs ys zs #q=charge, coordenates are scaled by the box side in each dimension (i.e. xmax-xmin) 
1655 1655 1 0 0.155146 0.00866324 0.0272779 
1435 1435 1 0 0.0420433 0.117914 0.0418938 
220 220 1 0 0.0398509 0.0878511 0.00748944 
1539 1539 1 0 0.0773386 0.123597 0.0924149 
490 490 1 0 0.0453017 0.0960721 0.0763319 
213 213 1 0 0.0930368 0.137579 0.000432034 
32 32 1 0 0.23246 0.0852174 0.0136858 
1793 1793 1 0 0.17242 0.0751994 0.0534468 
503 503 1 0 0.247452 0.129563 0.0924017 
1270 1270 1 0 0.0338917 0.158772 0.0773285 
1052 1052 1 0 0.103639 0.18844 0.0990318 
1806 1806 1 0 0.191734 0.162657 0.0112864 
757 757 1 0 0.203308 0.157649 0.0971052 
1333 1333 1 0 0.178796 0.16066 0.0992408 
439 439 1 0 0.194285 0.205403 0.000615014 
116 116 1 0 0.0556222 0.215284 0.0169966 
1916 1916 1 0 0.0680607 0.260175 0.0858558 
39 39 1 0 0.0800323 0.284267 0.0991332 
812 812 1 0 0.0430812 0.34277 0.0367916 
1671 1671 1 0 0.121453 0.352439 0.0283666 
1654 1654 1 0 0.0182601 0.392099 0.0514868 
1444 1444 1 0 0.165301 0.387437 0.0929368 
1419 1419 1 0 0.158816 0.420834 0.0134182 
827 827 1 0 0.226073 0.390841 0.0329137 
1507 1507 1 0 0.16325 0.462115 0.0911834 
188 188 1 0 0.102468 0.449844 0.0136994 
200 200 1 0 0.244376 0.483436 0.0882032 
576 576 1 0 0.078291 0.0304657 0.111887 
769 769 1 0 0.0565397 0.000374286 0.153269 
245 245 1 0 0.115978 0.0557854 0.185728 
1667 1667 1 0 0.139514 0.0310156 0.100781 
203 203 1 0 0.0928123 0.0575086 0.130955 
227 227 1 0 0.0777431 0.079224 0.197925 
63 63 1 0 0.155904 0.0860352 0.189105 
401 401 1 0 0.11255 0.0811425 0.139783 
1686 1686 1 0 0.174288 0.140872 0.1237 
1370 1370 1 0 0.239241 0.141497 0.171477 
1672 1672 1 0 0.220037 0.0895552 0.130928 
271 271 1 0 0.236746 0.093 0.117991 
1209 1209 1 0 0.000558478 0.166274 0.1894 
938 938 1 0 0.0591044 0.194466 0.154956 
1852 1852 1 0 0.0585003 0.202623 0.173898 
173 173 1 0 0.159463 0.207759 0.153297 
881 881 1 0 0.13184 0.191499 0.123586 
1361 1361 1 0 0.152925 0.15524 0.133149 
1571 1571 1 0 0.226554 0.156665 0.103235 
1192 1192 1 0 0.244212 0.155145 0.136627 
934 934 1 0 0.0766906 0.223227 0.124358 
1668 1668 1 0 0.111587 0.267357 0.139651 
521 521 1 0 0.107024 0.305701 0.119306 
1866 1866 1 0 0.0893783 0.308533 0.115811 
481 481 1 0 0.234217 0.327561 0.187527 
8 8 1 0 0.240056 0.340007 0.16461 
647 647 1 0 0.0268962 0.363288 0.117276 
1849 1849 1 0 0.144804 0.414747 0.13877 
1064 1064 1 0 0.0998034 0.397046 0.118368 
973 973 1 0 0.228986 0.382142 0.147822 
1809 1809 1 0 0.0721564 0.432596 0.118015 
1390 1390 1 0 0.0355214 0.446779 0.173824 
1514 1514 1 0 0.0616551 0.0605215 0.281548 
627 627 1 0 0.064229 0.0557616 0.237428 
1079 1079 1 0 0.154969 0.0436011 0.295716 
361 361 1 0 0.238026 0.0207248 0.216534 
103 103 1 0 0.0628772 0.09523 0.272744 
420 420 1 0 0.0708569 0.135416 0.238096 
1371 1371 1 0 0.196255 0.123473 0.298842 
1217 1217 1 0 0.162426 0.159028 0.264664 
825 825 1 0 0.0850706 0.181492 0.235337 
1086 1086 1 0 0.244129 0.151856 0.248705 
1290 1290 1 0 0.23405 0.164273 0.235202 
545 545 1 0 0.0445215 0.215768 0.223847 
787 787 1 0 0.248811 0.217986 0.260926 
1605 1605 1 0 0.187586 0.262227 0.215942 
1106 1106 1 0 0.0344228 0.347785 0.210738 
679 679 1 0 0.0452546 0.356391 0.218298 
498 498 1 0 0.109347 0.29195 0.270841 
104 104 1 0 0.142093 0.323384 0.270401 
296 296 1 0 0.0924596 0.333965 0.28348 
1730 1730 1 0 0.187794 0.326363 0.273686 
169 169 1 0 0.205054 0.330791 0.262682 
684 684 1 0 0.0448162 0.380876 0.273303 
1142 1142 1 0 0.0457241 0.426495 0.274906 
1186 1186 1 0 0.154902 0.385764 0.292239 
819 819 1 0 0.102432 0.359068 0.2134 
226 226 1 0 0.210444 0.378109 0.243595 
197 197 1 0 0.22446 0.362232 0.201664 
562 562 1 0 0.145903 0.474943 0.274149 
1609 1609 1 0 0.16047 0.429358 0.222119 
457 457 1 0 0.00427777 0.0646149 0.338226 
1263 1263 1 0 0.0569299 0.00147937 0.372495 
347 347 1 0 0.243877 0.0569525 0.351658 
747 747 1 0 0.21658 0.100211 0.33029 
1271 1271 1 0 0.0575498 0.19013 0.382111 
854 854 1 0 0.127364 0.170727 0.383637 
201 201 1 0 0.227243 0.149131 0.307654 
1461 1461 1 0 0.135449 0.231574 0.312258 
1207 1207 1 0 0.174959 0.254883 0.35679 
1392 1392 1 0 0.214486 0.345773 0.35207 
183 183 1 0 0.176307 0.33292 0.325161 
1228 1228 1 0 0.0609614 0.370347 0.317616 
1395 1395 1 0 0.0720034 0.365036 0.35405 
1687 1687 1 0 0.158875 0.392428 0.396704 
834 834 1 0 0.179395 0.412962 0.335841 
1210 1210 1 0 0.0309875 0.453088 0.329369 
114 114 1 0 0.192138 0.453082 0.322905 
1347 1347 1 0 0.174113 0.441225 0.390704 
24 24 1 0 0.150429 0.0405605 0.401485 
985 985 1 0 0.139095 0.0693772 0.463115 
1960 1960 1 0 0.136499 0.0207509 0.498691 
406 406 1 0 0.085239 0.0321867 0.412082 
1838 1838 1 0 0.0189259 0.0965294 0.458438 
1456 1456 1 0 0.104414 0.107668 0.482221 
309 309 1 0 0.0878255 0.116878 0.474323 
1590 1590 1 0 0.209072 0.0927 0.407596 
1089 1089 1 0 0.0523933 0.178627 0.497617 
3 3 1 0 0.0642887 0.20228 0.450279 
1997 1997 1 0 0.0283563 0.156405 0.406077 
1227 1227 1 0 0.0621422 0.159477 0.450655 
851 851 1 0 0.193709 0.195383 0.424799 
1610 1610 1 0 0.206562 0.206886 0.435438 
1894 1894 1 0 0.0276364 0.284663 0.437043 
397 397 1 0 0.0744774 0.278543 0.451693 
1750 1750 1 0 0.0837195 0.284982 0.412217 
367 367 1 0 0.12858 0.239539 0.467724 
1973 1973 1 0 0.16748 0.263191 0.456118 
950 950 1 0 0.246868 0.262403 0.468419 
179 179 1 0 0.0489133 0.353702 0.482921 
1769 1769 1 0 0.0761832 0.341349 0.430088 
556 556 1 0 0.0957787 0.306065 0.434726 
115 115 1 0 0.113456 0.327309 0.43935 
1834 1834 1 0 0.203448 0.324247 0.406917 
1512 1512 1 0 0.223816 0.34439 0.462347 
440 440 1 0 0.0346333 0.423968 0.413354 
910 910 1 0 0.0396109 0.381899 0.498656 
145 145 1 0 0.214741 0.42712 0.436539 
492 492 1 0 0.236737 0.413838 0.449521 
1560 1560 1 0 0.24864 0.404736 0.40497 
1060 1060 1 0 0.24364 0.439963 0.442572 
258 258 1 0 0.181057 0.436581 0.444964 
1279 1279 1 0 0.0540989 0.0447718 0.564432 
1747 1747 1 0 0.0807866 0.0447594 0.583317 
799 799 1 0 0.121372 0.0507755 0.515091 
960 960 1 0 0.175973 0.0447567 0.52606 
1253 1253 1 0 0.120641 0.0784289 0.540157 
1053 1053 1 0 0.0478369 0.184264 0.521658 
776 776 1 0 0.119566 0.199361 0.591824 
1 1 1 0 0.235404 0.154848 0.532781 
567 567 1 0 0.0752536 0.26517 0.53735 
1387 1387 1 0 0.128551 0.274741 0.581147 
1756 1756 1 0 0.099871 0.227465 0.500041 
1568 1568 1 0 0.158695 0.270657 0.599883 
1153 1153 1 0 0.0236512 0.337895 0.538541 
859 859 1 0 0.011974 0.333007 0.569638 
388 388 1 0 0.113404 0.311244 0.516196 
676 676 1 0 0.133733 0.342884 0.575173 
846 846 1 0 0.180539 0.291808 0.563737 
546 546 1 0 0.222379 0.318762 0.535506 
513 513 1 0 0.0442535 0.380377 0.5052 
1998 1998 1 0 0.141781 0.369091 0.576535 
433 433 1 0 0.221589 0.402886 0.538787 
31 31 1 0 0.113108 0.471717 0.512184 
52 52 1 0 0.160505 0.459718 0.526873 
1035 1035 1 0 0.220098 0.474646 0.599733 
935 935 1 0 0.0474732 0.123773 0.672245 
999 999 1 0 0.236589 0.108161 0.659993 
1984 1984 1 0 0.209415 0.131783 0.648781 
956 956 1 0 0.228956 0.115421 0.692293 
1843 1843 1 0 0.0282186 0.168813 0.606423 
1259 1259 1 0 0.0969391 0.188498 0.643319 
1319 1319 1 0 0.0791117 0.282574 0.606876 
174 174 1 0 0.029432 0.272392 0.654758 
932 932 1 0 0.082698 0.318224 0.611055 
554 554 1 0 0.197828 0.301995 0.684113 
1825 1825 1 0 0.0824259 0.418401 0.640193 
1311 1311 1 0 0.0938613 0.370111 0.654994 
814 814 1 0 0.133798 0.395041 0.659737 
1598 1598 1 0 0.102001 0.371422 0.681057 
1155 1155 1 0 0.140001 0.357576 0.613298 
1036 1036 1 0 0.0342376 0.430174 0.66796 
381 381 1 0 0.143921 0.435577 0.679602 
471 471 1 0 0.203138 0.0510329 0.707139 
535 535 1 0 0.065682 0.126045 0.713746 
1956 1956 1 0 0.069725 0.0789959 0.758812 
192 192 1 0 0.0698938 0.0771101 0.755984 
1092 1092 1 0 0.13017 0.118985 0.755705 
25 25 1 0 0.210738 0.0958568 0.712119 
861 861 1 0 0.200864 0.114088 0.744443 
1242 1242 1 0 0.217291 0.0940147 0.712995 
432 432 1 0 0.0662687 0.213996 0.704198 
1386 1386 1 0 0.0189175 0.188184 0.705279 
1745 1745 1 0 0.157805 0.187905 0.791005 
231 231 1 0 0.168301 0.15088 0.795692 
1546 1546 1 0 0.0109615 0.224346 0.733925 
109 109 1 0 0.0239733 0.270032 0.729882 
1673 1673 1 0 0.10662 0.270114 0.765552 
1256 1256 1 0 0.226466 0.241119 0.70777 
274 274 1 0 0.0673044 0.320882 0.786624 
331 331 1 0 0.215686 0.314611 0.742603 
463 463 1 0 0.0477211 0.41193 0.723858 
654 654 1 0 0.133754 0.371844 0.724419 
1111 1111 1 0 0.0921487 0.359246 0.787976 
1830 1830 1 0 0.211857 0.379481 0.792056 
1095 1095 1 0 0.0435644 0.475138 0.750742 
453 453 1 0 0.153719 0.459591 0.726847 
634 634 1 0 0.124143 0.438378 0.706891 
587 587 1 0 0.0327416 0.0602449 0.802987 
836 836 1 0 0.170127 0.0315758 0.80524 
1596 1596 1 0 0.194441 0.0705324 0.853997 
919 919 1 0 0.0409009 0.103358 0.8215 
1728 1728 1 0 0.0112331 0.0820432 0.89964 
829 829 1 0 0.0281842 0.134666 0.840756 
1572 1572 1 0 0.0890309 0.125125 0.896192 
470 470 1 0 0.133345 0.112636 0.801442 
832 832 1 0 0.181542 0.125384 0.813156 
1316 1316 1 0 0.0212859 0.172931 0.839595 
752 752 1 0 0.215273 0.200361 0.857464 
822 822 1 0 0.0729949 0.235117 0.874974 
1919 1919 1 0 0.120001 0.268018 0.877651 
1981 1981 1 0 0.116226 0.280267 0.893041 
187 187 1 0 0.23937 0.232994 0.867088 
1337 1337 1 0 0.241298 0.223375 0.852754 
250 250 1 0 0.122377 0.347313 0.812686 
13 13 1 0 0.135077 0.343587 0.852976 
1350 1350 1 0 0.0841656 0.324412 0.821799 
1716 1716 1 0 0.175571 0.346417 0.847781 
636 636 1 0 0.225222 0.352645 0.85581 
1291 1291 1 0 0.036349 0.400879 0.828239 
1777 1777 1 0 0.148327 0.359708 0.809853 
1120 1120 1 0 0.129837 0.387932 0.802436 
656 656 1 0 0.091288 0.471963 0.865354 
921 921 1 0 0.0411347 0.03457 0.937657 
17 17 1 0 0.0281063 0.0440922 0.944855 
1309 1309 1 0 0.196147 0.00292892 0.972409 
486 486 1 0 0.231082 0.0657097 0.900832 
1119 1119 1 0 0.00437037 0.131494 0.993404 
1453 1453 1 0 0.182813 0.0971669 0.974758 
1007 1007 1 0 0.226796 0.0837887 0.967954 
1886 1886 1 0 0.0751174 0.196861 0.939548 
1013 1013 1 0 0.127038 0.243042 0.976101 
708 708 1 0 0.188793 0.229141 0.975191 
1205 1205 1 0 0.198374 0.262725 0.95082 
1892 1892 1 0 0.138763 0.291345 0.963667 
1988 1988 1 0 0.241337 0.289024 0.943614 
157 157 1 0 0.208862 0.30388 0.956011 
414 414 1 0 0.204566 0.336181 0.907621 
898 898 1 0 0.00272775 0.358064 0.954498 
143 143 1 0 0.023167 0.399265 0.951895 
1856 1856 1 0 0.162766 0.384578 0.987813 
1314 1314 1 0 0.240524 0.380482 0.948778 
953 953 1 0 0.189413 0.416454 0.972288 
698 698 1 0 0.0678192 0.43232 0.945297 
180 180 1 0 0.116241 0.485399 0.914645 
941 941 1 0 0.134986 0.45612 0.959643 
605 605 1 0 0.117675 0.472885 0.96481 
1163 1163 1 0 0.246922 0.484174 0.991791 
837 837 1 0 0.0136565 0.550512 0.0987397 
697 697 1 0 0.0672012 0.52133 0.0531944 
889 889 1 0 0.0946365 0.536027 0.0990392 
1693 1693 1 0 0.098464 0.534988 0.0255442 
561 561 1 0 0.118577 0.508199 0.0439087 
345 345 1 0 0.19698 0.50041 0.0640132 
467 467 1 0 0.025698 0.572053 0.0150716 
465 465 1 0 0.137232 0.642982 0.034103 
1434 1434 1 0 0.145589 0.765008 0.0429035 
970 970 1 0 0.0305712 0.794717 0.0161088 
604 604 1 0 0.00297801 0.794844 0.0473036 
287 287 1 0 0.0730829 0.88837 0.0564147 
964 964 1 0 0.0490236 0.961688 0.0847933 
1043 1043 1 0 0.0285068 0.960931 0.0833694 
1402 1402 1 0 0.130664 0.987411 0.0413517 
1523 1523 1 0 0.189436 0.943908 0.0654916 
1989 1989 1 0 0.239339 0.948905 0.0286582 
162 162 1 0 0.0358008 0.512128 0.168687 
218 218 1 0 0.0532833 0.588745 0.184123 
675 675 1 0 0.123162 0.640722 0.140928 
622 622 1 0 0.241095 0.598903 0.106357 
1723 1723 1 0 0.223418 0.575242 0.179524 
795 795 1 0 0.184594 0.616677 0.10954 
971 971 1 0 0.17979 0.574989 0.180214 
606 606 1 0 0.0751125 0.673386 0.146523 
1620 1620 1 0 0.184273 0.658966 0.176157 
909 909 1 0 0.18722 0.65808 0.135846 
1351 1351 1 0 0.00553022 0.757597 0.104908 
628 628 1 0 0.0952182 0.728908 0.139253 
1742 1742 1 0 0.217223 0.736255 0.129035 
1287 1287 1 0 0.105067 0.80555 0.1951 
324 324 1 0 0.0955124 0.794174 0.115174 
1642 1642 1 0 0.181358 0.80483 0.170882 
1678 1678 1 0 0.239472 0.814486 0.123386 
1023 1023 1 0 0.0294951 0.860929 0.178208 
44 44 1 0 0.156424 0.905066 0.129201 
1091 1091 1 0 0.209088 0.90244 0.158808 
669 669 1 0 0.235066 0.919117 0.124738 
1974 1974 1 0 0.019588 0.966888 0.1709 
1764 1764 1 0 0.134426 0.943303 0.113363 
1096 1096 1 0 0.240804 0.677557 0.233258 
842 842 1 0 0.232799 0.682092 0.203201 
580 580 1 0 0.0434838 0.771973 0.279184 
1952 1952 1 0 0.0307083 0.733128 0.292277 
1936 1936 1 0 0.0152045 0.741938 0.284971 
1696 1696 1 0 0.0164438 0.742735 0.280038 
1574 1574 1 0 0.176995 0.772226 0.249767 
1338 1338 1 0 0.144186 0.789097 0.263574 
864 864 1 0 0.232234 0.847552 0.202415 
873 873 1 0 0.0670054 0.887726 0.20413 
322 322 1 0 0.0624872 0.861903 0.25137 
1948 1948 1 0 0.0369562 0.917466 0.249151 
1815 1815 1 0 0.0961343 0.922392 0.223527 
1955 1955 1 0 0.1178 0.90462 0.213409 
1805 1805 1 0 0.190516 0.910776 0.222618 
1000 1000 1 0 0.229668 0.885612 0.238855 
476 476 1 0 0.0364211 0.961992 0.247698 
1129 1129 1 0 0.109809 0.97342 0.294084 
649 649 1 0 0.167418 0.980564 0.240636 
1249 1249 1 0 0.031509 0.506733 0.361795 
69 69 1 0 0.115843 0.536437 0.37555 
1873 1873 1 0 0.238836 0.519558 0.36439 
1048 1048 1 0 0.20846 0.533155 0.355807 
1039 1039 1 0 0.184257 0.540182 0.317547 
1944 1944 1 0 0.0633654 0.605324 0.35301 
1702 1702 1 0 0.168188 0.604021 0.367232 
1983 1983 1 0 0.207575 0.594109 0.38133 
1136 1136 1 0 0.0795725 0.664185 0.33513 
1768 1768 1 0 0.0594481 0.758662 0.364232 
1966 1966 1 0 0.0777527 0.749912 0.318573 
884 884 1 0 0.124816 0.718095 0.38178 
643 643 1 0 0.119803 0.770639 0.344945 
1995 1995 1 0 0.102089 0.817341 0.329995 
177 177 1 0 0.0287775 0.920589 0.383659 
878 878 1 0 0.0393469 0.926927 0.384914 
1928 1928 1 0 0.106597 0.926709 0.386412 
458 458 1 0 0.127975 0.861192 0.310685 
696 696 1 0 0.0978462 0.863407 0.357992 
1416 1416 1 0 0.133344 0.860613 0.378376 
269 269 1 0 0.186967 0.858804 0.333046 
695 695 1 0 0.213569 0.92159 0.352301 
1031 1031 1 0 0.0843191 0.996911 0.355019 
92 92 1 0 0.174875 0.989707 0.331179 
1479 1479 1 0 0.23632 0.981025 0.331701 
117 117 1 0 0.171168 0.958022 0.327808 
993 993 1 0 0.0821306 0.525015 0.470345 
1802 1802 1 0 0.0543616 0.556167 0.431297 
261 261 1 0 0.145014 0.544421 0.498721 
700 700 1 0 0.166807 0.522794 0.433957 
1381 1381 1 0 0.0229868 0.607184 0.474812 
955 955 1 0 0.13431 0.614864 0.411715 
1433 1433 1 0 0.194938 0.621025 0.448526 
1037 1037 1 0 0.140545 0.647096 0.436322 
797 797 1 0 0.187131 0.652878 0.464344 
828 828 1 0 0.177504 0.670173 0.498479 
1817 1817 1 0 0.0830542 0.767712 0.406777 
1862 1862 1 0 0.106713 0.750648 0.467731 
437 437 1 0 0.122953 0.72975 0.406649 
1295 1295 1 0 0.136782 0.738 0.437151 
598 598 1 0 0.118051 0.821744 0.415145 
1072 1072 1 0 0.109801 0.846472 0.448124 
379 379 1 0 0.203354 0.793019 0.42932 
928 928 1 0 0.0403985 0.873154 0.472074 
1406 1406 1 0 0.0724715 0.863147 0.419502 
959 959 1 0 0.232223 0.915486 0.430995 
165 165 1 0 0.0372887 0.93595 0.436747 
1183 1183 1 0 0.0774891 0.965009 0.42966 
33 33 1 0 0.0849168 0.982371 0.462432 
1099 1099 1 0 0.105574 0.960004 0.487879 
1789 1789 1 0 0.102061 0.968085 0.407318 
1679 1679 1 0 0.212172 0.983595 0.451526 
991 991 1 0 0.227911 0.942266 0.45452 
614 614 1 0 0.213959 0.952196 0.404873 
1135 1135 1 0 0.0472496 0.567242 0.507578 
461 461 1 0 0.175692 0.52472 0.576681 
1508 1508 1 0 0.214935 0.509224 0.578129 
1208 1208 1 0 0.0164764 0.604512 0.522598 
686 686 1 0 0.199305 0.585489 0.582975 
1241 1241 1 0 0.173522 0.696389 0.511026 
1499 1499 1 0 0.0780583 0.783796 0.580806 
264 264 1 0 0.0246005 0.770173 0.564946 
403 403 1 0 0.107576 0.726601 0.513316 
815 815 1 0 0.132195 0.721847 0.562093 
683 683 1 0 0.200713 0.755051 0.582126 
1827 1827 1 0 0.00502111 0.831187 0.56626 
1558 1558 1 0 0.08469 0.828786 0.525358 
1924 1924 1 0 0.136571 0.848996 0.598312 
1261 1261 1 0 0.243578 0.827466 0.558737 
1083 1083 1 0 0.183401 0.847724 0.584618 
791 791 1 0 0.0698397 0.899754 0.593586 
826 826 1 0 0.0113641 0.88745 0.537342 
1676 1676 1 0 0.135946 0.879876 0.582067 
1415 1415 1 0 0.229601 0.877978 0.553164 
1283 1283 1 0 0.0612552 0.98401 0.519848 
1074 1074 1 0 0.227889 0.96631 0.500301 
597 597 1 0 0.225193 0.973339 0.567184 
1375 1375 1 0 0.0452206 0.51661 0.692989 
1876 1876 1 0 0.0743285 0.556735 0.644493 
1286 1286 1 0 0.0898332 0.553938 0.643413 
640 640 1 0 0.190351 0.516617 0.616999 
1146 1146 1 0 0.230449 0.50879 0.653678 
251 251 1 0 0.110918 0.578056 0.67941 
660 660 1 0 0.136 0.686628 0.64237 
1130 1130 1 0 0.103939 0.694713 0.668988 
975 975 1 0 0.153921 0.712403 0.697658 
1301 1301 1 0 0.142635 0.706893 0.647182 
303 303 1 0 0.00711004 0.762611 0.638386 
1704 1704 1 0 0.208807 0.751214 0.638229 
164 164 1 0 0.24874 0.764466 0.651666 
1957 1957 1 0 0.230364 0.749596 0.669711 
644 644 1 0 0.220572 0.749541 0.60936 
353 353 1 0 0.119996 0.849678 0.686073 
86 86 1 0 0.0973834 0.862531 0.657732 
981 981 1 0 0.14475 0.910861 0.654119 
270 270 1 0 0.0930711 0.877481 0.629212 
1850 1850 1 0 0.181248 0.910615 0.699164 
1595 1595 1 0 0.0539871 0.989197 0.639942 
10 10 1 0 0.0203675 0.940188 0.630542 
1062 1062 1 0 0.0972864 0.92896 0.678346 
446 446 1 0 0.0890097 0.936968 0.636276 
509 509 1 0 0.0240057 0.54585 0.704293 
1482 1482 1 0 0.143975 0.556796 0.709393 
1218 1218 1 0 0.0848177 0.52842 0.763805 
1084 1084 1 0 0.239025 0.527892 0.720387 
507 507 1 0 0.188701 0.542734 0.745177 
1583 1583 1 0 0.0684276 0.587276 0.788559 
674 674 1 0 0.0356224 0.617245 0.769934 
1403 1403 1 0 0.151679 0.63518 0.746232 
1178 1178 1 0 0.234435 0.637022 0.798799 
319 319 1 0 0.075589 0.664453 0.791782 
987 987 1 0 0.106215 0.648938 0.720003 
888 888 1 0 0.0965209 0.661981 0.724068 
368 368 1 0 0.0236743 0.733967 0.747198 
519 519 1 0 0.0224325 0.768115 0.765514 
495 495 1 0 0.0955285 0.73032 0.705815 
930 930 1 0 0.0991514 0.750351 0.755537 
166 166 1 0 0.179186 0.762312 0.774215 
1297 1297 1 0 0.246642 0.780252 0.715465 
289 289 1 0 0.0295188 0.790803 0.78168 
425 425 1 0 0.0408281 0.852575 0.745518 
670 670 1 0 0.0711744 0.790191 0.738533 
1068 1068 1 0 0.144569 0.829722 0.766975 
726 726 1 0 0.202334 0.789868 0.749851 
952 952 1 0 0.116052 0.895666 0.700404 
320 320 1 0 0.114518 0.873417 0.701069 
1141 1141 1 0 0.094147 0.910028 0.703625 
584 584 1 0 0.0131798 0.93536 0.700903 
766 766 1 0 0.0210917 0.978564 0.744075 
372 372 1 0 0.138077 0.942452 0.716047 
1584 1584 1 0 0.107257 0.951464 0.777834 
1021 1021 1 0 0.125325 0.955891 0.708523 
1346 1346 1 0 0.169935 0.95745 0.700715 
1003 1003 1 0 0.190069 0.931382 0.708246 
1489 1489 1 0 0.224885 0.952344 0.707438 
979 979 1 0 0.102569 0.520424 0.893372 
1278 1278 1 0 0.12086 0.523414 0.889555 
577 577 1 0 0.214187 0.543505 0.825731 
1787 1787 1 0 0.0613662 0.636025 0.853398 
549 549 1 0 0.0695904 0.573352 0.802437 
933 933 1 0 0.000187282 0.652698 0.801393 
1401 1401 1 0 0.0280769 0.656238 0.876708 
966 966 1 0 0.0242522 0.728706 0.822935 
1080 1080 1 0 0.0666341 0.74094 0.890667 
951 951 1 0 0.0483099 0.766018 0.857503 
1191 1191 1 0 0.237251 0.758034 0.82979 
870 870 1 0 0.21922 0.720827 0.847208 
73 73 1 0 0.0408438 0.847116 0.876552 
1189 1189 1 0 0.127238 0.804381 0.870613 
753 753 1 0 0.139283 0.789103 0.885652 
1312 1312 1 0 0.229479 0.840381 0.849527 
1148 1148 1 0 0.074438 0.9016 0.843307 
585 585 1 0 0.238597 0.919009 0.827035 
1947 1947 1 0 0.225327 0.891097 0.858637 
1336 1336 1 0 0.0482345 0.980665 0.845373 
30 30 1 0 0.0475254 0.974 0.862485 
1925 1925 1 0 0.201392 0.990355 0.893846 
1524 1524 1 0 0.0482242 0.553352 0.926168 
785 785 1 0 0.153632 0.506426 0.93811 
1114 1114 1 0 0.214719 0.536617 0.953489 
1615 1615 1 0 0.0394048 0.585012 0.936104 
1497 1497 1 0 0.0522553 0.599182 0.919298 
9 9 1 0 0.0528729 0.643637 0.953224 
1951 1951 1 0 0.147121 0.707378 0.990754 
1979 1979 1 0 0.159936 0.734998 0.947623 
1002 1002 1 0 0.112113 0.785272 0.947376 
1999 1999 1 0 0.168708 0.748061 0.900949 
560 560 1 0 0.234339 0.764529 0.903861 
1423 1423 1 0 0.226893 0.773386 0.974983 
1193 1193 1 0 0.00397926 0.845628 0.96679 
210 210 1 0 0.109954 0.786138 0.943629 
502 502 1 0 0.0430061 0.88284 0.994564 
1705 1705 1 0 0.136483 0.862029 0.903008 
1549 1549 1 0 0.120952 0.91092 0.909122 
600 600 1 0 0.166239 0.868301 0.906376 
1022 1022 1 0 0.129246 0.99081 0.965168 
1076 1076 1 0 0.111944 0.979763 0.91617 
1963 1963 1 0 0.168452 0.986302 0.966876 
208 208 1 0 0.233057 0.937417 0.950978 
522 522 1 0 0.224886 0.966333 0.990599 
1180 1180 1 0 0.411271 0.0708947 0.0219886 
5 5 1 0 0.496351 0.0211454 0.0149903 
1631 1631 1 0 0.37166 0.124583 0.00475626 
624 624 1 0 0.334821 0.0799049 0.0185958 
402 402 1 0 0.277942 0.188585 0.0301108 
1162 1162 1 0 0.264628 0.21338 0.0767474 
1137 1137 1 0 0.264377 0.210576 0.019196 
713 713 1 0 0.297432 0.146775 0.0567607 
399 399 1 0 0.355111 0.235354 0.0985031 
749 749 1 0 0.377402 0.24519 0.00669723 
1712 1712 1 0 0.431052 0.276785 0.0828418 
1776 1776 1 0 0.454038 0.268313 0.00182612 
217 217 1 0 0.480536 0.294173 0.0131749 
645 645 1 0 0.263073 0.410486 0.0145915 
1472 1472 1 0 0.336647 0.418118 0.0249164 
1055 1055 1 0 0.375654 0.467148 0.0239761 
885 885 1 0 0.349304 0.434415 0.0968991 
409 409 1 0 0.37978 0.479073 0.0536378 
253 253 1 0 0.4091 0.430101 0.072665 
480 480 1 0 0.303961 0.0578768 0.191492 
454 454 1 0 0.323683 0.005917 0.105549 
256 256 1 0 0.456272 0.0343859 0.156572 
620 620 1 0 0.323715 0.104236 0.145793 
882 882 1 0 0.331005 0.119336 0.121257 
1277 1277 1 0 0.495578 0.102776 0.162287 
1284 1284 1 0 0.466116 0.114288 0.199431 
292 292 1 0 0.317698 0.196001 0.133108 
1450 1450 1 0 0.283157 0.212529 0.115677 
1154 1154 1 0 0.27454 0.150358 0.193996 
1992 1992 1 0 0.303551 0.213061 0.193613 
1213 1213 1 0 0.390793 0.181252 0.120746 
1792 1792 1 0 0.390359 0.175913 0.16039 
667 667 1 0 0.489102 0.203292 0.10885 
533 533 1 0 0.268471 0.231092 0.147497 
733 733 1 0 0.352811 0.22024 0.175069 
329 329 1 0 0.459107 0.219921 0.133176 
1490 1490 1 0 0.439708 0.219062 0.199515 
506 506 1 0 0.439648 0.265829 0.101579 
946 946 1 0 0.375167 0.307828 0.158033 
325 325 1 0 0.368609 0.350712 0.174108 
1758 1758 1 0 0.318568 0.494771 0.157305 
1385 1385 1 0 0.391742 0.437466 0.19764 
632 632 1 0 0.418988 0.46037 0.183606 
739 739 1 0 0.315544 0.06964 0.241678 
1923 1923 1 0 0.290307 0.0286823 0.266283 
21 21 1 0 0.353588 0.0617731 0.212009 
913 913 1 0 0.389025 4.53429e-05 0.247759 
1185 1185 1 0 0.253333 0.0880673 0.251315 
1786 1786 1 0 0.270636 0.123564 0.283052 
532 532 1 0 0.379626 0.113881 0.285663 
1812 1812 1 0 0.498307 0.120346 0.26749 
1143 1143 1 0 0.420841 0.120038 0.219988 
687 687 1 0 0.300867 0.157874 0.204488 
1113 1113 1 0 0.421924 0.199417 0.290078 
1663 1663 1 0 0.489996 0.160118 0.257975 
189 189 1 0 0.46384 0.238032 0.225455 
232 232 1 0 0.269002 0.290286 0.269629 
1736 1736 1 0 0.320857 0.354307 0.248466 
304 304 1 0 0.330828 0.311146 0.291806 
1230 1230 1 0 0.260031 0.317679 0.263085 
1657 1657 1 0 0.308413 0.301314 0.281363 
1492 1492 1 0 0.294295 0.308624 0.22806 
1727 1727 1 0 0.368875 0.344917 0.286039 
1582 1582 1 0 0.310771 0.41543 0.257956 
89 89 1 0 0.387553 0.363799 0.224671 
380 380 1 0 0.492665 0.39329 0.221396 
34 34 1 0 0.369867 0.446377 0.268906 
418 418 1 0 0.265297 0.0514582 0.330499 
806 806 1 0 0.315955 0.0532607 0.354247 
1501 1501 1 0 0.409259 0.0461347 0.338077 
918 918 1 0 0.463345 0.0607163 0.323066 
23 23 1 0 0.483106 0.0299538 0.36325 
1220 1220 1 0 0.482391 0.0888882 0.361467 
794 794 1 0 0.418847 0.0998076 0.326427 
976 976 1 0 0.327578 0.175313 0.386828 
1914 1914 1 0 0.354607 0.172307 0.349211 
118 118 1 0 0.395127 0.1672 0.381816 
1648 1648 1 0 0.360109 0.201968 0.317272 
1030 1030 1 0 0.428292 0.209912 0.374395 
998 998 1 0 0.462099 0.176532 0.354602 
1717 1717 1 0 0.309716 0.272944 0.301888 
127 127 1 0 0.261181 0.320185 0.333223 
682 682 1 0 0.292451 0.341436 0.36634 
1533 1533 1 0 0.279067 0.317958 0.300538 
1184 1184 1 0 0.456323 0.352991 0.32891 
803 803 1 0 0.299017 0.40003 0.354995 
1800 1800 1 0 0.325214 0.390111 0.332924 
54 54 1 0 0.405772 0.408059 0.372814 
823 823 1 0 0.402458 0.359883 0.362317 
1203 1203 1 0 0.341028 0.419142 0.398412 
155 155 1 0 0.360758 0.371814 0.362967 
1697 1697 1 0 0.430794 0.390961 0.33824 
1564 1564 1 0 0.431705 0.391877 0.396313 
1835 1835 1 0 0.262732 0.0462031 0.49382 
1968 1968 1 0 0.28402 0.00996058 0.40575 
589 589 1 0 0.410681 0.0297582 0.484121 
518 518 1 0 0.367209 0.0313145 0.457178 
1467 1467 1 0 0.48602 0.023196 0.40239 
150 150 1 0 0.307915 0.140882 0.482961 
578 578 1 0 0.39698 0.101356 0.44527 
1602 1602 1 0 0.417911 0.0994515 0.462624 
574 574 1 0 0.396555 0.156317 0.405576 
1816 1816 1 0 0.370025 0.168975 0.486675 
1339 1339 1 0 0.33469 0.2059 0.476557 
945 945 1 0 0.451105 0.213848 0.422697 
855 855 1 0 0.447271 0.171656 0.414554 
40 40 1 0 0.416094 0.239375 0.479649 
1480 1480 1 0 0.357866 0.245252 0.440655 
196 196 1 0 0.402646 0.282428 0.435867 
579 579 1 0 0.488441 0.34607 0.421997 
1063 1063 1 0 0.296957 0.372141 0.488171 
1790 1790 1 0 0.416573 0.415784 0.464803 
1837 1837 1 0 0.30724 0.472526 0.483575 
233 233 1 0 0.364439 0.490164 0.430025 
1581 1581 1 0 0.408132 0.468817 0.454964 
1633 1633 1 0 0.387218 0.440675 0.479439 
247 247 1 0 0.412261 0.488511 0.486382 
77 77 1 0 0.495447 0.476163 0.44121 
1680 1680 1 0 0.490439 0.48565 0.421095 
1917 1917 1 0 0.261467 0.0157395 0.533695 
511 511 1 0 0.269366 0.0516425 0.529055 
997 997 1 0 0.272706 0.0246772 0.569642 
711 711 1 0 0.362053 0.0648681 0.519134 
390 390 1 0 0.402749 0.0525045 0.552518 
341 341 1 0 0.482643 0.0239977 0.55141 
596 596 1 0 0.486785 0.0496572 0.526922 
594 594 1 0 0.372248 0.0716065 0.545897 
235 235 1 0 0.408411 0.110484 0.541982 
1075 1075 1 0 0.434845 0.0869221 0.57375 
1368 1368 1 0 0.440215 0.12222 0.537057 
1695 1695 1 0 0.387212 0.189667 0.590696 
1554 1554 1 0 0.498826 0.199138 0.504358 
1175 1175 1 0 0.474652 0.212155 0.503798 
947 947 1 0 0.312982 0.252346 0.556578 
804 804 1 0 0.31056 0.254776 0.553269 
1909 1909 1 0 0.478219 0.234325 0.510785 
1223 1223 1 0 0.461257 0.229708 0.564554 
1274 1274 1 0 0.440236 0.215866 0.524719 
280 280 1 0 0.30799 0.353086 0.524862 
1867 1867 1 0 0.49984 0.328405 0.535452 
1200 1200 1 0 0.271436 0.414577 0.560084 
400 400 1 0 0.276008 0.427749 0.587038 
1662 1662 1 0 0.273521 0.421476 0.529876 
1739 1739 1 0 0.360379 0.397456 0.533249 
745 745 1 0 0.354014 0.427537 0.504108 
593 593 1 0 0.383872 0.358958 0.599331 
120 120 1 0 0.460811 0.366121 0.577852 
1685 1685 1 0 0.32138 0.46712 0.585351 
1545 1545 1 0 0.354698 0.0123402 0.663861 
619 619 1 0 0.344355 0.0096716 0.691626 
618 618 1 0 0.34825 0.00994081 0.681302 
170 170 1 0 0.284776 0.106022 0.66242 
1422 1422 1 0 0.392929 0.132528 0.676962 
1636 1636 1 0 0.464157 0.0940893 0.631737 
1711 1711 1 0 0.264079 0.16222 0.625971 
897 897 1 0 0.328369 0.152163 0.698539 
557 557 1 0 0.293595 0.145776 0.629812 
452 452 1 0 0.446245 0.19602 0.67361 
1765 1765 1 0 0.306926 0.266068 0.650528 
1069 1069 1 0 0.295048 0.262166 0.661246 
988 988 1 0 0.430301 0.275013 0.616531 
1494 1494 1 0 0.3627 0.349607 0.695752 
59 59 1 0 0.426661 0.33759 0.643057 
1125 1125 1 0 0.307511 0.403632 0.640105 
1343 1343 1 0 0.251505 0.426654 0.69812 
1437 1437 1 0 0.400032 0.388551 0.641709 
1722 1722 1 0 0.35364 0.398725 0.649046 
415 415 1 0 0.353361 0.377804 0.606787 
1900 1900 1 0 0.453069 0.396859 0.664865 
1930 1930 1 0 0.43213 0.395805 0.608075 
1622 1622 1 0 0.43005 0.373336 0.62315 
146 146 1 0 0.307043 0.429822 0.685024 
1987 1987 1 0 0.253155 0.475233 0.634957 
1231 1231 1 0 0.436189 0.464646 0.659607 
206 206 1 0 0.332913 0.0335903 0.718319 
681 681 1 0 0.298861 0.0297272 0.764157 
1299 1299 1 0 0.460895 0.0200552 0.761542 
510 510 1 0 0.255785 0.118861 0.715627 
504 504 1 0 0.318997 0.100987 0.799059 
843 843 1 0 0.374976 0.0803416 0.729517 
1475 1475 1 0 0.381835 0.103231 0.799643 
1342 1342 1 0 0.341298 0.0801706 0.752347 
1160 1160 1 0 0.31569 0.17933 0.748438 
1457 1457 1 0 0.275332 0.178492 0.770387 
74 74 1 0 0.384014 0.200912 0.736734 
1128 1128 1 0 0.282182 0.257235 0.795741 
1221 1221 1 0 0.466048 0.234311 0.713289 
1778 1778 1 0 0.430848 0.25417 0.728583 
657 657 1 0 0.425135 0.221219 0.763742 
215 215 1 0 0.334369 0.336066 0.765623 
1975 1975 1 0 0.382232 0.318445 0.770147 
1586 1586 1 0 0.421118 0.296894 0.73929 
1967 1967 1 0 0.289532 0.406318 0.777595 
790 790 1 0 0.274957 0.395627 0.736863 
1488 1488 1 0 0.286068 0.358486 0.776227 
1918 1918 1 0 0.334226 0.36513 0.718934 
1359 1359 1 0 0.332945 0.464152 0.779718 
276 276 1 0 0.372267 0.452233 0.744502 
1619 1619 1 0 0.412021 0.429631 0.738468 
942 942 1 0 0.345631 0.431691 0.779871 
1690 1690 1 0 0.468854 0.481686 0.711166 
1863 1863 1 0 0.449094 0.496212 0.761527 
1097 1097 1 0 0.489303 0.455212 0.792353 
1065 1065 1 0 0.276038 0.0494767 0.87529 
1303 1303 1 0 0.268214 0.0495842 0.853263 
1559 1559 1 0 0.427134 0.0270215 0.836207 
1522 1522 1 0 0.485135 0.077105 0.836278 
473 473 1 0 0.268925 0.144984 0.825562 
1738 1738 1 0 0.406938 0.190452 0.811244 
14 14 1 0 0.440239 0.206296 0.87647 
1391 1391 1 0 0.448167 0.176985 0.813682 
1754 1754 1 0 0.294392 0.216453 0.850093 
1703 1703 1 0 0.260989 0.220899 0.842117 
487 487 1 0 0.385719 0.244658 0.883292 
306 306 1 0 0.450496 0.258379 0.807648 
1354 1354 1 0 0.268443 0.352747 0.804894 
543 543 1 0 0.371968 0.344529 0.858529 
1939 1939 1 0 0.333438 0.338392 0.888371 
880 880 1 0 0.250387 0.387975 0.846212 
1474 1474 1 0 0.250715 0.382221 0.835615 
1797 1797 1 0 0.264326 0.369197 0.855887 
765 765 1 0 0.410891 0.362367 0.857736 
1828 1828 1 0 0.404826 0.425741 0.87984 
112 112 1 0 0.376209 0.409873 0.856015 
1116 1116 1 0 0.345724 0.408011 0.857265 
779 779 1 0 0.405962 0.453887 0.80594 
1707 1707 1 0 0.454283 0.459853 0.851387 