ITEM: TIMESTEP
0
ITEM: NUMBER OF ATOMS
2000
ITEM: BOX BOUNDS pp pp pp
1.8292885330785609e+01 6.1707114669130533e+01
1.8292885330785609e+01 6.1707114669130533e+01
1.8292885330785609e+01 6.1707114669130533e+01
ITEM: ATOMS id mol type q xs ys zs 
1329 1329 1 0 0.0543332 0.0543094 0.0802321 
1860 1860 2 0 0.12425 0.0983303 0.0871812 
191 191 1 0 0.0643035 0.120067 0.0313756 
1179 1179 1 0 0.107877 0.115567 0.162156 
101 101 1 0 0.0991551 0.0233314 0.138329 
53 53 1 0 0.139945 0.144579 0.021301 
914 914 2 0 0.0325137 0.128162 0.10425 
728 728 2 0 0.0397198 0.0725472 0.16321 
1790 1790 2 0 0.122859 0.0190867 0.0615777 
1800 1800 2 0 0.0521323 0.00510883 0.0080531 
481 481 1 0 0.0690083 0.192334 0.0707473 
366 366 2 0 0.133162 0.188162 0.130093 
1931 1931 1 0 0.137107 0.236806 0.01706 
426 426 2 0 0.0454309 0.191884 0.149842 
678 678 2 0 0.173042 0.0478284 0.158093 
939 939 1 0 0.192124 0.0597035 0.0755233 
160 160 2 0 0.256791 0.0842604 0.12583 
1509 1509 1 0 0.186352 0.127554 0.128692 
1497 1497 1 0 0.297021 0.0991045 0.049156 
1730 1730 2 0 0.221852 0.128657 0.0405083 
1554 1554 2 0 0.262886 0.0279982 0.0278758 
1755 1755 1 0 0.31275 0.0319522 0.0891854 
1007 1007 1 0 0.237671 0.000955091 0.130462 
1131 1131 1 0 0.25903 0.16614 0.101635 
1061 1061 1 0 0.186962 0.19583 0.0676455 
94 94 2 0 0.261019 0.230385 0.00286556 
1741 1741 1 0 0.312457 0.239409 0.0784344 
1004 1004 2 0 0.330743 0.193158 0.0179698 
29 29 1 0 0.302283 0.0316792 0.181561 
1652 1652 2 0 0.28872 0.162625 0.176635 
926 926 2 0 0.21255 0.191068 0.169405 
78 78 2 0 0.460231 0.00687678 0.161214 
284 284 2 0 0.373344 0.0981836 0.0725573 
1963 1963 1 0 0.431766 0.0865469 0.166239 
1152 1152 2 0 0.464999 0.121256 0.095856 
936 936 2 0 0.371255 0.0265771 0.143492 
1047 1047 1 0 0.421862 0.0384064 0.0847981 
1468 1468 2 0 0.425894 0.0733489 0.0132739 
727 727 1 0 0.489269 0.127494 0.0210024 
458 458 2 0 0.339554 0.166286 0.0964689 
1135 1135 1 0 0.335959 0.10154 0.150316 
333 333 1 0 0.411044 0.158065 0.0304054 
794 794 2 0 0.499272 0.0475447 0.035146 
722 722 2 0 0.461864 0.24861 0.0694523 
1557 1557 1 0 0.421965 0.191421 0.109265 
1086 1086 2 0 0.490702 0.237238 0.152545 
735 735 1 0 0.339023 0.225215 0.153211 
752 752 2 0 0.498371 0.207521 0.000798459 
1722 1722 2 0 0.376131 0.160184 0.187073 
1046 1046 2 0 0.461707 0.162475 0.174605 
1942 1942 2 0 0.157487 0.0077668 0.28034 
1498 1498 2 0 0.0799396 0.120855 0.236264 
1370 1370 2 0 0.158236 0.151152 0.211221 
957 957 1 0 0.142651 0.140606 0.294107 
1991 1991 1 0 0.0997261 0.0613784 0.297877 
1041 1041 1 0 0.0236407 0.0306372 0.254363 
778 778 2 0 0.0998236 0.037037 0.220046 
995 995 1 0 0.00467857 0.119269 0.26012 
1474 1474 2 0 0.0469795 0.00705367 0.328189 
334 334 2 0 0.0027053 0.222623 0.324343 
1774 1774 2 0 0.0314403 0.189604 0.232023 
1761 1761 1 0 0.103296 0.212215 0.20047 
1408 1408 2 0 0.140828 0.223599 0.270177 
521 521 1 0 0.0633905 0.243132 0.27741 
1601 1601 1 0 0.0703627 0.174121 0.317159 
1596 1596 2 0 0.0421028 0.0988772 0.338649 
1282 1282 2 0 0.124007 0.105748 0.36523 
1673 1673 1 0 0.0712036 0.0471242 0.391893 
859 859 1 0 0.128557 0.0044852 0.358322 
224 224 2 0 0.0376145 0.230857 0.39418 
784 784 2 0 0.141403 0.184098 0.361834 
1561 1561 1 0 0.166761 0.0766898 0.242238 
874 874 2 0 0.230357 0.0283939 0.212861 
1097 1097 1 0 0.25332 0.0298225 0.293443 
543 543 1 0 0.230621 0.105676 0.20199 
1406 1406 2 0 0.300256 0.0995057 0.252251 
1453 1453 1 0 0.22259 0.116785 0.311043 
1694 1694 2 0 0.332523 0.0536464 0.307807 
256 256 2 0 0.251518 0.165513 0.249943 
1793 1793 1 0 0.305109 0.22318 0.228378 
1325 1325 1 0 0.212923 0.246879 0.226351 
7 7 1 0 0.321145 0.202025 0.310256 
707 707 1 0 0.214841 0.192116 0.329516 
578 578 2 0 0.19427 0.048643 0.34338 
1274 1274 2 0 0.267102 0.0646331 0.367418 
134 134 2 0 0.24148 0.150173 0.399696 
355 355 1 0 0.331316 0.0179435 0.385869 
844 844 2 0 0.296088 0.134875 0.339633 
220 220 2 0 0.207505 0.228576 0.399613 
503 503 1 0 0.289569 0.21351 0.393531 
1588 1588 2 0 0.425107 0.123084 0.238514 
1899 1899 1 0 0.461891 0.0504836 0.228912 
1238 1238 2 0 0.424722 0.025227 0.29523 
1809 1809 1 0 0.374002 0.0625861 0.223079 
23 23 1 0 0.361066 0.126622 0.29312 
1922 1922 2 0 0.437267 0.160703 0.309209 
1403 1403 1 0 0.488625 0.090393 0.313391 
1533 1533 1 0 0.389117 0.201157 0.25403 
1620 1620 2 0 0.472955 0.22523 0.261792 
1769 1769 1 0 0.41585 0.0895211 0.344781 
15 15 1 0 0.454816 0.023502 0.367225 
795 795 1 0 0.371954 0.158694 0.366802 
236 236 2 0 0.453002 0.178491 0.399036 
19 19 1 0 0.399714 0.229979 0.338327 
834 834 2 0 0.0931615 0.103505 0.460153 
1964 1964 2 0 0.0157411 0.109541 0.41788 
915 915 1 0 0.0791658 0.160501 0.402901 
400 400 2 0 0.140773 0.0344021 0.435717 
1848 1848 2 0 0.15426 0.161297 0.447708 
1656 1656 2 0 0.020195 0.171348 0.466517 
969 969 1 0 0.0771409 0.230591 0.466202 
1978 1978 2 0 0.055517 0.160786 0.599659 
1326 1326 2 0 0.105895 0.0981276 0.567251 
1721 1721 1 0 0.116089 0.156575 0.516035 
1677 1677 1 0 0.144712 0.159742 0.599187 
1426 1426 2 0 0.0189351 0.121394 0.53009 
1957 1957 1 0 0.102131 0.0377282 0.508006 
559 559 1 0 0.0941703 0.0204846 0.59352 
1458 1458 2 0 0.11742 0.232314 0.562481 
1829 1829 1 0 0.0401855 0.2111 0.533316 
1357 1357 1 0 0.172009 0.0910215 0.490301 
68 68 2 0 0.303424 0.0372565 0.464339 
49 49 1 0 0.235088 0.0212695 0.425656 
1314 1314 2 0 0.251625 0.107824 0.464207 
1057 1057 1 0 0.189107 0.0924821 0.409757 
1933 1933 1 0 0.330444 0.101648 0.402808 
1976 1976 2 0 0.310461 0.161324 0.457802 
1164 1164 2 0 0.288477 0.248869 0.464074 
59 59 1 0 0.225151 0.187565 0.474757 
855 855 1 0 0.238552 0.135636 0.538083 
627 627 1 0 0.282157 0.0940433 0.59656 
1636 1636 2 0 0.310689 0.0871339 0.524995 
1484 1484 2 0 0.256146 0.0146178 0.588859 
1872 1872 2 0 0.195613 0.0820747 0.583247 
109 109 1 0 0.239282 0.0470604 0.514422 
1310 1310 2 0 0.167587 0.0110915 0.562527 
1087 1087 1 0 0.282701 0.210155 0.533116 
300 300 2 0 0.198069 0.210227 0.545207 
1826 1826 2 0 0.449948 0.130449 0.489092 
955 955 1 0 0.38269 0.080914 0.490263 
222 222 2 0 0.395586 0.0544002 0.412485 
1617 1617 1 0 0.466407 0.101832 0.416132 
1587 1587 1 0 0.390136 0.141543 0.440799 
1405 1405 1 0 0.449883 0.227336 0.468518 
1340 1340 2 0 0.366507 0.223806 0.416338 
1136 1136 2 0 0.395702 0.13059 0.54939 
913 913 1 0 0.361993 0.053925 0.573286 
337 337 1 0 0.471146 0.0774407 0.54817 
128 128 2 0 0.448659 0.0106275 0.500635 
1355 1355 1 0 0.36479 0.18892 0.50799 
398 398 2 0 0.351804 0.221405 0.578979 
1529 1529 1 0 0.443711 0.211768 0.546166 
1490 1490 2 0 0.0500178 0.023069 0.658587 
769 769 1 0 0.0174693 0.0774181 0.600155 
313 313 1 0 0.0995186 0.0891692 0.648874 
399 399 1 0 0.164625 0.0431539 0.64314 
365 365 1 0 0.082599 0.233265 0.63327 
1805 1805 1 0 0.0870361 0.16415 0.686238 
1536 1536 2 0 0.0925698 0.050894 0.723279 
1926 1926 2 0 0.138348 0.0686855 0.785835 
993 993 1 0 0.0904096 0.138166 0.778373 
200 200 2 0 0.153928 0.108504 0.71934 
1613 1613 1 0 0.0270466 0.0959016 0.704355 
1556 1556 2 0 0.0157866 0.211236 0.668168 
186 186 2 0 0.159324 0.217178 0.682429 
1076 1076 2 0 0.0189748 0.188109 0.749202 
1869 1869 1 0 0.207657 0.130453 0.645656 
984 984 2 0 0.249892 0.060707 0.661782 
482 482 2 0 0.265423 0.179412 0.615597 
1715 1715 1 0 0.306398 0.239696 0.644751 
1231 1231 1 0 0.250738 0.0199246 0.731669 
2000 2000 2 0 0.171032 0.0194553 0.720375 
1392 1392 2 0 0.231905 0.0954057 0.746072 
41 41 1 0 0.289661 0.129384 0.682228 
1884 1884 2 0 0.322549 0.0629732 0.732693 
1121 1121 1 0 0.310168 0.135064 0.768893 
1328 1328 2 0 0.16921 0.142179 0.788754 
289 289 1 0 0.208297 0.165934 0.717073 
1903 1903 1 0 0.234981 0.242953 0.687862 
536 536 2 0 0.306745 0.197654 0.717606 
1347 1347 1 0 0.302557 0.230311 0.789253 
1806 1806 2 0 0.346712 0.14525 0.614606 
1747 1747 1 0 0.421886 0.0570058 0.625991 
618 618 2 0 0.333649 0.0649923 0.647941 
63 63 1 0 0.426036 0.163375 0.622492 
1830 1830 2 0 0.489555 0.0986151 0.629345 
1385 1385 1 0 0.435236 0.245396 0.630233 
1837 1837 1 0 0.463028 0.0727161 0.714436 
1352 1352 2 0 0.469743 0.0124073 0.771197 
1705 1705 1 0 0.372858 0.128363 0.698776 
1823 1823 1 0 0.408089 0.128236 0.769619 
1045 1045 1 0 0.378415 0.00365766 0.692927 
679 679 1 0 0.377501 0.0211794 0.771784 
1898 1898 2 0 0.471299 0.153515 0.685836 
962 962 2 0 0.370329 0.196149 0.764092 
171 171 1 0 0.440365 0.221829 0.717977 
1078 1078 2 0 0.378777 0.203336 0.670489 
992 992 2 0 0.453493 0.199367 0.792478 
35 35 1 0 0.0615137 0.0615265 0.805212 
686 686 2 0 2.32803e-05 0.0115758 0.810087 
1147 1147 1 0 0.155479 0.231764 0.824659 
455 455 1 0 0.0175019 0.0390707 0.88164 
1594 1594 2 0 0.019163 0.0668437 0.964646 
1120 1120 2 0 0.0933101 0.0631097 0.878241 
381 381 1 0 0.0523587 0.126418 0.912573 
1171 1171 1 0 0.106476 0.0634831 0.992543 
292 292 2 0 0.131546 0.118349 0.934434 
515 515 1 0 0.0828606 0.000622999 0.935219 
1165 1165 1 0 0.121386 0.137632 0.851993 
1530 1530 2 0 0.158096 0.0422538 0.921077 
436 436 2 0 0.00415941 0.151114 0.991979 
1597 1597 1 0 0.133053 0.0100075 0.839089 
1234 1234 2 0 0.0558382 0.190164 0.839469 
123 123 1 0 0.0175607 0.198528 0.930298 
1880 1880 2 0 0.0722984 0.191421 0.990624 
923 923 1 0 0.120965 0.19678 0.923723 
1276 1276 2 0 0.20267 0.0197337 0.803973 
1351 1351 1 0 0.280304 0.0491497 0.803061 
1384 1384 2 0 0.254592 0.123919 0.830405 
279 279 1 0 0.227506 0.195434 0.801152 
446 446 2 0 0.195747 0.0686246 0.990222 
705 705 1 0 0.185658 0.0812717 0.85565 
108 108 2 0 0.257772 0.0617377 0.879798 
375 375 1 0 0.275477 0.0664559 0.958174 
87 87 1 0 0.320629 0.119602 0.904876 
1861 1861 1 0 0.212125 0.112903 0.923823 
1983 1983 1 0 0.270551 0.155742 0.983235 
800 800 2 0 0.329702 0.0423576 0.902288 
178 178 2 0 0.331271 0.18158 0.845816 
1622 1622 2 0 0.187993 0.174283 0.871188 
920 920 2 0 0.292026 0.248909 0.866969 
1739 1739 1 0 0.214764 0.240012 0.904722 
1940 1940 2 0 0.19121 0.188363 0.96381 
214 214 2 0 0.264624 0.177543 0.904734 
413 413 1 0 0.320345 0.217528 0.943142 
190 190 2 0 0.475864 0.122228 0.810338 
424 424 2 0 0.356099 0.0877922 0.813202 
1399 1399 1 0 0.4836 0.0119933 0.855315 
960 960 2 0 0.344789 0.105514 0.984836 
1750 1750 2 0 0.442965 0.00805176 0.921738 
1923 1923 1 0 0.428361 0.0693272 0.848314 
489 489 1 0 0.405696 0.0802276 0.937538 
1634 1634 2 0 0.474209 0.133477 0.942592 
1178 1178 2 0 0.383574 0.162003 0.928664 
545 545 1 0 0.495014 0.0585355 0.956976 
305 305 1 0 0.342652 0.0192412 0.988186 
633 633 1 0 0.425867 0.166989 0.861549 
1345 1345 1 0 0.443142 0.212794 0.943329 
369 369 1 0 0.379969 0.229178 0.886779 
352 352 2 0 0.465021 0.245378 0.875269 
1069 1069 1 0 0.0377623 0.325259 0.00377551 
137 137 1 0 0.0902078 0.255131 0.134208 
1706 1706 2 0 0.131771 0.314448 0.0114537 
1690 1690 2 0 0.0426239 0.26823 0.0599566 
1524 1524 2 0 0.143347 0.493044 0.115714 
88 88 2 0 0.0123385 0.394413 0.0390335 
1350 1350 2 0 0.0507207 0.473075 0.0833646 
1595 1595 1 0 0.0468751 0.34838 0.096237 
956 956 2 0 0.0940354 0.389803 0.0456 
132 132 2 0 0.0882837 0.412934 0.128879 
929 929 1 0 0.139128 0.335998 0.0926079 
332 332 2 0 0.131126 0.471628 0.0367868 
147 147 1 0 0.16211 0.417869 0.0917243 
571 571 1 0 0.0267901 0.49576 0.012945 
866 866 2 0 0.00282978 0.41033 0.130882 
953 953 1 0 0.00266072 0.333186 0.174022 
338 338 2 0 0.0416677 0.264622 0.196582 
1072 1072 2 0 0.0832225 0.330197 0.168942 
1124 1124 2 0 0.0526578 0.476453 0.192607 
1663 1663 1 0 0.165914 0.460725 0.193758 
410 410 2 0 0.153027 0.366016 0.167597 
1322 1322 2 0 0.1711 0.278279 0.157232 
1424 1424 2 0 0.192614 0.276647 0.0694823 
1090 1090 2 0 0.269895 0.308754 0.0677822 
476 476 2 0 0.24847 0.261145 0.133359 
1446 1446 2 0 0.321941 0.301216 0.139126 
708 708 2 0 0.317118 0.289643 0.0048125 
1892 1892 2 0 0.199737 0.354795 0.0400609 
495 495 1 0 0.212665 0.339892 0.120382 
56 56 2 0 0.230502 0.404807 0.162706 
845 845 1 0 0.280418 0.377472 0.104964 
670 670 2 0 0.305553 0.372035 0.0313198 
997 997 1 0 0.301982 0.47262 0.16271 
1349 1349 1 0 0.238286 0.477827 0.109447 
1977 1977 1 0 0.227848 0.430606 0.0398048 
942 942 2 0 0.308552 0.442309 0.0715158 
1945 1945 1 0 0.240919 0.333379 0.193821 
1962 1962 2 0 0.31437 0.392995 0.187494 
52 52 2 0 0.39456 0.270238 0.117425 
1541 1541 1 0 0.353039 0.320741 0.0679772 
65 65 1 0 0.383978 0.251707 0.038225 
626 626 2 0 0.459923 0.311064 0.144046 
12 12 2 0 0.403492 0.328676 0.00829799 
1814 1814 2 0 0.440851 0.349049 0.0745177 
185 185 1 0 0.389765 0.480304 0.0328705 
1186 1186 2 0 0.457499 0.425725 0.0563758 
1539 1539 1 0 0.379314 0.398096 0.0688787 
927 927 1 0 0.372137 0.433512 0.139733 
704 704 2 0 0.449923 0.411055 0.157991 
1313 1313 1 0 0.388191 0.349487 0.138286 
377 377 1 0 0.449893 0.484969 0.109166 
603 603 1 0 0.420305 0.258149 0.19838 
1602 1602 2 0 0.460554 0.493702 0.18778 
21 21 1 0 0.125044 0.289878 0.221676 
732 732 2 0 0.121133 0.308471 0.301086 
1449 1449 1 0 0.0519762 0.325979 0.256867 
1184 1184 2 0 0.00534246 0.392024 0.265801 
985 985 1 0 0.0623814 0.398215 0.204413 
542 542 2 0 0.124592 0.372521 0.247308 
911 911 1 0 0.088278 0.438719 0.270058 
1465 1465 1 0 0.0681837 0.376394 0.314784 
9 9 1 0 0.152328 0.392328 0.331328 
1491 1491 1 0 0.00251583 0.4359 0.332108 
965 965 1 0 0.0505718 0.292018 0.34463 
209 209 1 0 0.112942 0.255015 0.391026 
354 354 2 0 0.129452 0.332989 0.382451 
710 710 2 0 0.0674347 0.49995 0.398838 
1766 1766 2 0 0.0937556 0.440305 0.351912 
1311 1311 1 0 0.187453 0.271607 0.330061 
28 28 2 0 0.2825 0.294373 0.252868 
1546 1546 2 0 0.195786 0.315352 0.258913 
1888 1888 2 0 0.266421 0.256674 0.323375 
858 858 2 0 0.173553 0.463683 0.285082 
1503 1503 1 0 0.24099 0.472707 0.217202 
1175 1175 1 0 0.19836 0.40085 0.244308 
1346 1346 2 0 0.255604 0.493168 0.316127 
311 311 1 0 0.319653 0.463983 0.258318 
1851 1851 1 0 0.271212 0.37575 0.257143 
1167 1167 1 0 0.303001 0.337206 0.321187 
554 554 2 0 0.230878 0.415059 0.318871 
1606 1606 2 0 0.216842 0.344652 0.355778 
1132 1132 2 0 0.287685 0.481544 0.399367 
1447 1447 1 0 0.204411 0.466528 0.372115 
661 661 1 0 0.309402 0.428283 0.3395 
251 251 1 0 0.347452 0.326199 0.211263 
429 429 1 0 0.490242 0.291266 0.214929 
335 335 1 0 0.353458 0.279029 0.286927 
1354 1354 2 0 0.4388 0.297931 0.274717 
1811 1811 1 0 0.48986 0.443659 0.252695 
1642 1642 2 0 0.425368 0.348441 0.209629 
988 988 2 0 0.349331 0.37948 0.273648 
1203 1203 1 0 0.408851 0.436903 0.226707 
140 140 2 0 0.411893 0.48785 0.292895 
651 651 1 0 0.433955 0.377613 0.28817 
278 278 2 0 0.341489 0.282608 0.366125 
1092 1092 2 0 0.489012 0.257385 0.337738 
1169 1169 1 0 0.488139 0.339944 0.339463 
1336 1336 2 0 0.397587 0.338002 0.345913 
742 742 2 0 0.396125 0.431346 0.357798 
385 385 1 0 0.479606 0.492077 0.334361 
1108 1108 2 0 0.0602123 0.303488 0.425056 
1443 1443 1 0 0.154936 0.276518 0.453734 
779 779 1 0 0.0545616 0.396913 0.406389 
260 260 2 0 0.0547436 0.386188 0.492546 
223 223 1 0 0.13654 0.356469 0.46869 
1284 1284 2 0 0.10465 0.436305 0.454002 
1423 1423 1 0 0.0320354 0.484717 0.466795 
788 788 2 0 0.0733266 0.293051 0.51819 
1249 1249 1 0 0.101951 0.304737 0.592898 
118 118 2 0 0.024635 0.270108 0.584039 
457 457 1 0 0.162275 0.294039 0.541588 
1947 1947 1 0 0.00837278 0.336851 0.533388 
312 312 2 0 0.102869 0.37621 0.557324 
237 237 1 0 0.0642168 0.454073 0.53183 
840 840 2 0 0.0300249 0.397172 0.580145 
1771 1771 1 0 0.153736 0.436587 0.524829 
1791 1791 1 0 0.267808 0.298485 0.402252 
1879 1879 1 0 0.226042 0.40165 0.492469 
188 188 2 0 0.175635 0.415228 0.425805 
98 98 2 0 0.307243 0.437608 0.482996 
340 340 2 0 0.216579 0.491779 0.455975 
1005 1005 1 0 0.26639 0.402993 0.40181 
1168 1168 2 0 0.205593 0.335659 0.437864 
1843 1843 1 0 0.297226 0.360901 0.466884 
1155 1155 1 0 0.241854 0.276894 0.524552 
1133 1133 1 0 0.318253 0.293458 0.563953 
1193 1193 1 0 0.186116 0.370714 0.552667 
1102 1102 2 0 0.269692 0.352305 0.542775 
1944 1944 2 0 0.229273 0.443079 0.561465 
1667 1667 1 0 0.324257 0.427324 0.559388 
897 897 1 0 0.281594 0.497691 0.528457 
93 93 1 0 0.478444 0.311103 0.490929 
367 367 1 0 0.347564 0.303437 0.450314 
432 432 2 0 0.427706 0.285983 0.41709 
711 711 1 0 0.353384 0.4972 0.444735 
1886 1886 2 0 0.490456 0.453838 0.416721 
1335 1335 1 0 0.410568 0.350786 0.467581 
1272 1272 2 0 0.39582 0.428919 0.459385 
1157 1157 1 0 0.358506 0.382129 0.407244 
1396 1396 2 0 0.497853 0.397101 0.49049 
687 687 1 0 0.445298 0.388144 0.405652 
1669 1669 1 0 0.449117 0.479613 0.489531 
1862 1862 2 0 0.402863 0.293545 0.528414 
790 790 2 0 0.491683 0.274125 0.569117 
110 110 2 0 0.447376 0.475301 0.56803 
808 808 2 0 0.377175 0.480149 0.521181 
598 598 2 0 0.349538 0.357068 0.527453 
107 107 1 0 0.41463 0.40095 0.548676 
141 141 1 0 0.032536 0.334325 0.627932 
362 362 2 0 0.0482079 0.470315 0.625563 
1779 1779 1 0 0.113498 0.37794 0.652565 
580 580 2 0 0.157013 0.432068 0.60215 
751 751 1 0 0.116883 0.455306 0.666139 
382 382 2 0 0.0988265 0.30101 0.672071 
1921 1921 1 0 0.0239155 0.258093 0.785974 
1461 1461 1 0 0.0068927 0.291888 0.691543 
1571 1571 1 0 0.102769 0.257008 0.760791 
1684 1684 2 0 0.05463 0.319664 0.747346 
1429 1429 1 0 0.136035 0.327782 0.745031 
1534 1534 2 0 0.0413513 0.390077 0.693263 
1801 1801 1 0 0.0430849 0.472148 0.712295 
1768 1768 2 0 0.102598 0.423231 0.742178 
567 567 1 0 0.173105 0.254278 0.614351 
86 86 2 0 0.244999 0.294529 0.614834 
1372 1372 2 0 0.175161 0.336043 0.623017 
1919 1919 1 0 0.267918 0.373871 0.620258 
1777 1777 1 0 0.222024 0.449175 0.648798 
656 656 2 0 0.301249 0.451165 0.631237 
212 212 2 0 0.302548 0.322405 0.675072 
271 271 1 0 0.212905 0.31884 0.694678 
922 922 2 0 0.182659 0.26411 0.747308 
811 811 1 0 0.275642 0.287877 0.742539 
549 549 1 0 0.173317 0.494746 0.706736 
1605 1605 1 0 0.178925 0.43634 0.769047 
348 348 2 0 0.172852 0.395882 0.699636 
1925 1925 1 0 0.25566 0.420753 0.715534 
342 342 2 0 0.300504 0.367156 0.753983 
930 930 2 0 0.22237 0.354952 0.767785 
1938 1938 2 0 0.272905 0.431823 0.798125 
599 599 1 0 0.332319 0.40579 0.691699 
1802 1802 2 0 0.246066 0.492196 0.746908 
1183 1183 1 0 0.36568 0.294232 0.635948 
944 944 2 0 0.425458 0.335134 0.601465 
1150 1150 2 0 0.353699 0.380831 0.620915 
258 258 2 0 0.470198 0.414961 0.621762 
346 346 2 0 0.446341 0.489324 0.649935 
719 719 1 0 0.381162 0.460709 0.619172 
602 602 2 0 0.436688 0.299981 0.691181 
13 13 1 0 0.353742 0.269725 0.731085 
925 925 1 0 0.462147 0.288528 0.784443 
1050 1050 2 0 0.489956 0.346149 0.734661 
1901 1901 1 0 0.416801 0.381281 0.669641 
1242 1242 2 0 0.399933 0.446822 0.708474 
1735 1735 1 0 0.361979 0.415389 0.772338 
1849 1849 1 0 0.418093 0.476355 0.791554 
620 620 2 0 0.377862 0.342236 0.749744 
1158 1158 2 0 0.454007 0.392796 0.792308 
1031 1031 1 0 0.476308 0.429992 0.699984 
1680 1680 2 0 0.342043 0.488722 0.741496 
1464 1464 2 0 0.496056 0.457254 0.771569 
1499 1499 1 0 0.0944067 0.313365 0.818559 
744 744 2 0 0.00995557 0.333004 0.823593 
105 105 1 0 0.0836291 0.472309 0.800665 
1853 1853 1 0 0.147748 0.372523 0.809556 
1476 1476 2 0 0.0685581 0.389964 0.805356 
130 130 2 0 0.0735984 0.267925 0.964508 
1907 1907 1 0 0.085472 0.258814 0.886436 
242 242 2 0 0.0465209 0.324445 0.912724 
646 646 2 0 0.147944 0.273742 0.942113 
1208 1208 2 0 0.155541 0.301893 0.868136 
718 718 2 0 0.149408 0.447726 0.84629 
310 310 2 0 0.0499648 0.429463 0.948911 
1083 1083 1 0 0.0953294 0.366577 0.963771 
777 777 1 0 0.0658577 0.433431 0.871079 
1270 1270 2 0 0.124896 0.375583 0.89054 
1382 1382 2 0 0.160844 0.410665 0.974996 
159 159 1 0 0.129922 0.463643 0.925114 
1001 1001 1 0 0.220378 0.277315 0.825266 
1866 1866 2 0 0.324378 0.311279 0.809745 
1863 1863 1 0 0.215352 0.489551 0.825455 
1317 1317 1 0 0.207375 0.289109 0.991881 
1125 1125 1 0 0.277013 0.298878 0.933138 
138 138 2 0 0.265005 0.375711 0.95968 
1389 1389 1 0 0.320733 0.385865 0.838829 
1707 1707 1 0 0.291147 0.45329 0.995168 
143 143 1 0 0.217222 0.4043 0.851311 
1504 1504 2 0 0.263453 0.335044 0.858445 
1103 1103 1 0 0.28192 0.460526 0.872797 
1470 1470 2 0 0.227055 0.440257 0.925402 
1973 1973 1 0 0.207017 0.346159 0.913547 
299 299 1 0 0.188009 0.488669 0.972643 
470 470 2 0 0.386193 0.26011 0.810529 
1211 1211 1 0 0.395351 0.335292 0.8307 
837 837 1 0 0.424053 0.308421 0.906317 
1318 1318 2 0 0.474247 0.293408 0.96789 
1320 1320 2 0 0.382515 0.268019 0.961633 
16 16 2 0 0.344035 0.311059 0.889146 
281 281 1 0 0.409506 0.473256 0.94661 
1316 1316 2 0 0.367727 0.418258 0.987995 
1988 1988 2 0 0.490564 0.445389 0.981915 
329 329 1 0 0.465177 0.442591 0.853345 
1039 1039 1 0 0.335119 0.415595 0.909847 
1410 1410 2 0 0.372414 0.451624 0.850912 
1834 1834 2 0 0.472331 0.339303 0.852393 
1278 1278 2 0 0.412182 0.394884 0.912131 
1113 1113 1 0 0.459932 0.373204 0.976253 
263 263 1 0 0.34003 0.350157 0.957958 
1960 1960 2 0 0.123911 0.593383 0.127942 
959 959 1 0 0.0400441 0.592493 0.0890485 
749 749 1 0 0.0983255 0.544046 0.0615688 
771 771 1 0 0.0738802 0.528523 0.135475 
999 999 1 0 0.099302 0.619756 0.0308553 
218 218 2 0 0.0204431 0.664218 0.0434929 
841 841 1 0 0.0829225 0.659369 0.105941 
26 26 2 0 0.0444694 0.616911 0.164201 
1180 1180 2 0 0.161426 0.557141 0.00112932 
250 250 2 0 0.040205 0.574052 0.0038722 
798 798 2 0 0.056212 0.739252 0.080502 
1051 1051 1 0 0.139727 0.69844 0.0597896 
908 908 2 0 0.0746533 0.718675 0.159271 
1058 1058 2 0 0.147269 0.692305 0.138887 
1489 1489 1 0 0.00847357 0.687662 0.117893 
228 228 2 0 0.0125946 0.690729 0.199147 
395 395 1 0 0.248735 0.602611 0.0777153 
485 485 1 0 0.190308 0.547149 0.0811107 
1380 1380 2 0 0.275612 0.54634 0.128822 
1631 1631 1 0 0.319594 0.546699 0.0558024 
197 197 1 0 0.190308 0.625043 0.164588 
928 928 2 0 0.174938 0.624676 0.059939 
553 553 1 0 0.286886 0.635717 0.141726 
842 842 2 0 0.247449 0.514594 0.0334448 
980 980 2 0 0.312784 0.646232 0.0609594 
1526 1526 2 0 0.232078 0.681289 0.0928644 
700 700 2 0 0.255512 0.743826 0.150282 
613 613 1 0 0.308779 0.726323 0.0951481 
526 526 2 0 0.277932 0.742276 0.0147256 
25 25 1 0 0.233814 0.67862 9.83512e-05 
852 852 2 0 0.197755 0.749014 0.00397906 
1151 1151 1 0 0.199373 0.535016 0.168562 
149 149 1 0 0.244307 0.681238 0.197936 
1906 1906 2 0 0.318954 0.704594 0.17536 
801 801 1 0 0.362164 0.607179 0.0126796 
1984 1984 2 0 0.37046 0.509489 0.109529 
1759 1759 1 0 0.378014 0.623387 0.104518 
3 3 1 0 0.418197 0.557296 0.0692722 
1763 1763 1 0 0.436737 0.655703 0.0292375 
491 491 1 0 0.344423 0.566873 0.162093 
1756 1756 2 0 0.423333 0.561477 0.1537 
1732 1732 2 0 0.461391 0.618693 0.0936535 
592 592 2 0 0.467579 0.510398 0.0241783 
1967 1967 1 0 0.499255 0.547711 0.0970501 
623 623 1 0 0.490458 0.588447 0.0249822 
1758 1758 2 0 0.495569 0.700605 0.00478414 
72 72 2 0 0.43239 0.686579 0.14925 
504 504 2 0 0.375393 0.697329 0.0546546 
1139 1139 1 0 0.374104 0.749111 0.139131 
606 606 2 0 0.480876 0.697123 0.0822098 
1459 1459 1 0 0.463837 0.62433 0.191459 
1679 1679 1 0 0.379941 0.644286 0.187129 
561 561 1 0 0.105569 0.654953 0.200581 
1425 1425 1 0 0.0550366 0.515565 0.296734 
1457 1457 1 0 0.0524794 0.555064 0.22081 
650 650 2 0 0.139844 0.58168 0.210857 
1987 1987 1 0 0.142606 0.575595 0.293314 
998 998 2 0 0.0746416 0.618159 0.264374 
730 730 2 0 0.114705 0.509183 0.23228 
551 551 1 0 0.0356006 0.648364 0.327039 
1142 1142 2 0 0.0299732 0.726923 0.332174 
867 867 1 0 0.117461 0.686907 0.301388 
1704 1704 2 0 0.151652 0.722669 0.234288 
519 519 1 0 0.127738 0.510668 0.338849 
1101 1101 1 0 0.107915 0.644343 0.369341 
454 454 2 0 0.0636272 0.570891 0.361709 
318 318 2 0 0.149355 0.576375 0.381262 
772 772 2 0 0.156143 0.705576 0.38044 
833 833 1 0 0.185318 0.644641 0.242751 
702 702 2 0 0.221099 0.570371 0.3321 
1010 1010 2 0 0.302344 0.530633 0.218488 
1230 1230 2 0 0.258938 0.602279 0.207574 
357 357 1 0 0.215942 0.548756 0.251353 
1296 1296 2 0 0.258958 0.635865 0.298376 
434 434 2 0 0.321001 0.635604 0.246248 
803 803 1 0 0.288524 0.563296 0.289418 
1416 1416 2 0 0.28363 0.710289 0.281376 
1591 1591 1 0 0.204035 0.703198 0.311166 
359 359 1 0 0.290375 0.567684 0.373835 
597 597 1 0 0.199875 0.638708 0.367956 
324 324 2 0 0.279548 0.683912 0.360706 
1812 1812 2 0 0.401627 0.61842 0.26595 
391 391 1 0 0.484205 0.618239 0.270832 
89 89 1 0 0.349932 0.609477 0.326376 
169 169 1 0 0.365622 0.54801 0.267835 
875 875 1 0 0.441968 0.551779 0.24714 
1616 1616 2 0 0.382777 0.505483 0.201115 
572 572 2 0 0.435682 0.667186 0.319241 
1353 1353 1 0 0.369773 0.69875 0.264744 
644 644 2 0 0.459548 0.689233 0.240894 
126 126 2 0 0.336542 0.514051 0.335931 
1412 1412 2 0 0.417428 0.557043 0.334925 
904 904 2 0 0.492765 0.581238 0.339461 
227 227 1 0 0.396501 0.648029 0.392619 
880 880 2 0 0.480474 0.659267 0.389503 
1492 1492 2 0 0.368442 0.707514 0.344007 
1657 1657 1 0 0.438271 0.728939 0.37862 
590 590 2 0 0.116116 0.50575 0.494207 
1535 1535 1 0 0.145481 0.503363 0.417317 
1495 1495 1 0 0.0939337 0.565295 0.436298 
1718 1718 2 0 0.135609 0.634135 0.442186 
1746 1746 2 0 0.0497422 0.629294 0.421388 
1042 1042 2 0 0.00762509 0.556584 0.441968 
1641 1641 1 0 0.0158229 0.622785 0.496462 
1301 1301 1 0 0.142806 0.723575 0.459727 
1749 1749 1 0 0.0776238 0.701928 0.417499 
961 961 1 0 0.00144369 0.688998 0.438087 
85 85 1 0 0.108542 0.599636 0.509716 
1297 1297 1 0 0.0304199 0.658908 0.58183 
1422 1422 2 0 0.12414 0.655233 0.568381 
1304 1304 2 0 0.0736174 0.594372 0.58312 
558 558 2 0 0.0440204 0.544225 0.516781 
1817 1817 1 0 0.108078 0.507012 0.582867 
1073 1073 1 0 0.0126697 0.747822 0.543431 
319 319 1 0 0.095276 0.72569 0.593349 
1687 1687 1 0 0.158848 0.728749 0.536948 
1134 1134 2 0 0.0598824 0.693632 0.500384 
81 81 1 0 0.173195 0.558189 0.477851 
1462 1462 2 0 0.223126 0.573087 0.414358 
550 550 2 0 0.288574 0.546104 0.459111 
1123 1123 1 0 0.318873 0.633937 0.41102 
1434 1434 2 0 0.276982 0.636195 0.485774 
896 896 2 0 0.213859 0.663952 0.440589 
1628 1628 2 0 0.216827 0.735471 0.480822 
1463 1463 1 0 0.239038 0.741143 0.400473 
527 527 1 0 0.311522 0.710992 0.427346 
1540 1540 2 0 0.166678 0.587151 0.561384 
1235 1235 1 0 0.241333 0.57483 0.525406 
584 584 2 0 0.230885 0.660466 0.580334 
1781 1781 1 0 0.310583 0.632156 0.556193 
1145 1145 1 0 0.17889 0.653169 0.511601 
1870 1870 2 0 0.188171 0.510833 0.541217 
1085 1085 1 0 0.272526 0.707389 0.52928 
1287 1287 1 0 0.423679 0.506644 0.402455 
776 776 2 0 0.46169 0.580036 0.417576 
1780 1780 2 0 0.369293 0.570934 0.404961 
862 862 2 0 0.406539 0.549196 0.475834 
1751 1751 1 0 0.356218 0.641687 0.485736 
1293 1293 1 0 0.439598 0.635598 0.476573 
1650 1650 2 0 0.492229 0.694651 0.465154 
766 766 2 0 0.387741 0.704552 0.446922 
871 871 1 0 0.471929 0.558673 0.528822 
303 303 1 0 0.338582 0.56089 0.519757 
297 297 1 0 0.419834 0.550909 0.590859 
768 768 2 0 0.398401 0.624673 0.559401 
420 420 2 0 0.479779 0.640019 0.555011 
124 124 2 0 0.352673 0.706606 0.53525 
1029 1029 1 0 0.436223 0.711251 0.528469 
217 217 1 0 0.0184378 0.541081 0.60639 
829 829 1 0 0.118815 0.56982 0.650438 
1688 1688 2 0 0.0884416 0.657316 0.639094 
1512 1512 2 0 0.104394 0.529659 0.720972 
1232 1232 2 0 0.056339 0.554063 0.77894 
535 535 1 0 0.0521342 0.589205 0.708344 
84 84 2 0 0.160724 0.585397 0.71813 
1754 1754 2 0 0.152734 0.511281 0.781545 
573 573 1 0 0.120219 0.603768 0.783587 
374 374 2 0 0.0130104 0.646213 0.669443 
1846 1846 2 0 0.0869559 0.665699 0.720955 
57 57 1 0 0.132545 0.714867 0.764839 
1569 1569 1 0 0.0903324 0.73206 0.677026 
847 847 1 0 0.0115842 0.701092 0.740307 
1032 1032 2 0 0.172524 0.517341 0.6307 
321 321 1 0 0.198759 0.614499 0.636479 
1568 1568 2 0 0.278235 0.584863 0.613082 
1951 1951 1 0 0.246528 0.51342 0.604503 
255 255 1 0 0.168632 0.704524 0.616042 
1269 1269 1 0 0.310947 0.697519 0.605448 
47 47 1 0 0.239212 0.693763 0.651458 
262 262 2 0 0.285487 0.608478 0.689959 
61 61 1 0 0.307517 0.520196 0.677818 
1024 1024 2 0 0.231739 0.546412 0.680269 
187 187 1 0 0.235003 0.590677 0.748685 
825 825 1 0 0.323603 0.565685 0.744708 
1198 1198 2 0 0.184923 0.656065 0.798556 
765 765 1 0 0.173584 0.663549 0.713502 
1904 1904 2 0 0.17123 0.743695 0.703325 
14 14 2 0 0.246502 0.684276 0.73953 
1013 1013 1 0 0.290948 0.749913 0.752617 
1162 1162 2 0 0.310102 0.710745 0.683703 
418 418 2 0 0.342052 0.529097 0.603985 
616 616 2 0 0.439041 0.607984 0.643288 
351 351 1 0 0.357701 0.601276 0.628507 
787 787 1 0 0.471652 0.684113 0.62225 
74 74 2 0 0.388523 0.681168 0.613529 
1201 1201 1 0 0.493357 0.555107 0.675174 
982 982 2 0 0.385857 0.544795 0.676246 
1299 1299 1 0 0.424344 0.609021 0.720827 
1289 1289 1 0 0.449923 0.618004 0.799396 
283 283 1 0 0.441465 0.518361 0.731863 
390 390 2 0 0.38845 0.548885 0.787235 
494 494 2 0 0.36057 0.627734 0.781229 
1428 1428 2 0 0.495708 0.647449 0.696593 
977 977 1 0 0.353096 0.647428 0.705786 
638 638 2 0 0.416824 0.678794 0.761553 
958 958 2 0 0.369725 0.735968 0.731244 
1363 1363 1 0 0.43121 0.702499 0.688253 
1257 1257 1 0 0.050328 0.635991 0.803101 
595 595 1 0 0.0187101 0.510602 0.835692 
1212 1212 2 0 0.0856779 0.508835 0.878256 
201 201 1 0 0.0957334 0.511171 0.97869 
1093 1093 1 0 0.129232 0.556785 0.923592 
1387 1387 1 0 0.0173119 0.608333 0.929438 
411 411 1 0 0.142137 0.556803 0.845417 
846 846 2 0 0.0261003 0.528554 0.935854 
486 486 2 0 0.0719195 0.589079 0.863137 
1996 1996 2 0 0.0934919 0.625311 0.946413 
196 196 2 0 0.113511 0.664783 0.839025 
106 106 2 0 0.160843 0.66434 0.972286 
291 291 1 0 0.00607622 0.731097 0.999664 
652 652 2 0 0.0790637 0.696073 0.999831 
1965 1965 1 0 0.071802 0.692796 0.908577 
853 853 1 0 0.130909 0.747106 0.94305 
1948 1948 2 0 0.0307017 0.716126 0.839297 
1378 1378 2 0 0.293425 0.604203 0.814431 
323 323 1 0 0.311868 0.503737 0.813027 
1643 1643 1 0 0.215931 0.58838 0.829761 
82 82 2 0 0.33127 0.705226 0.80833 
1639 1639 1 0 0.255253 0.680352 0.824925 
1369 1369 1 0 0.207631 0.589946 0.943448 
448 448 2 0 0.247018 0.639434 0.893527 
720 720 2 0 0.201393 0.529653 0.892342 
42 42 2 0 0.279006 0.54886 0.868514 
341 341 1 0 0.268563 0.518476 0.939782 
417 417 1 0 0.167895 0.63892 0.894908 
789 789 1 0 0.312274 0.594263 0.927008 
103 103 1 0 0.321581 0.654364 0.871452 