ITEM: TIMESTEP
0
ITEM: NUMBER OF ATOMS
2000
ITEM: BOX BOUNDS pp pp pp
6.5975793545208212e+00 4.8402420645482849e+01
6.5975793545208212e+00 4.8402420645482849e+01
6.5975793545208212e+00 4.8402420645482849e+01
ITEM: ATOMS id mol type q xs ys zs 
223 223 1 0 0.108773 0.0979947 0.0986981 
2 2 2 0 0.0461792 0.0480557 0.052218 
4 4 2 0 0.147495 0.0422932 0.0513691 
222 222 2 0 0.0463876 0.149607 0.143497 
202 202 2 0 0.0455102 0.0531442 0.138979 
224 224 2 0 0.146145 0.151786 0.148036 
24 24 2 0 0.149675 0.152376 0.0536079 
22 22 2 0 0.0410492 0.152002 0.054016 
204 204 2 0 0.152682 0.0469772 0.155102 
23 23 1 0 0.0974729 0.0999418 0.0106925 
225 225 1 0 0.199958 0.102374 0.0948983 
6 6 2 0 0.248899 0.0509302 0.0504682 
26 26 2 0 0.244366 0.154534 0.0487649 
206 206 2 0 0.249913 0.0497409 0.136681 
25 25 1 0 0.19357 0.10086 0.00956308 
421 421 1 0 0.000425721 0.0886264 0.199792 
403 403 1 0 0.0899801 0.00721378 0.190722 
423 423 1 0 0.0951701 0.0998734 0.19387 
401 401 1 0 0.00651054 0.00296372 0.19601 
425 425 1 0 0.201617 0.101073 0.195848 
243 243 1 0 0.0980484 0.201667 0.102371 
263 263 1 0 0.0959029 0.316172 0.104937 
42 42 2 0 0.0451212 0.262733 0.0700365 
242 242 2 0 0.0460575 0.254665 0.152305 
44 44 2 0 0.143218 0.263526 0.062395 
244 244 2 0 0.148101 0.247684 0.152925 
63 63 1 0 0.0976621 0.306219 0.00726792 
43 43 1 0 0.10068 0.217885 0.0119508 
45 45 1 0 0.184158 0.215991 0.0072753 
245 245 1 0 0.19895 0.200089 0.106573 
265 265 1 0 0.203494 0.304544 0.114301 
46 46 2 0 0.242234 0.254755 0.0620186 
65 65 1 0 0.204042 0.305321 0.00808462 
443 443 1 0 0.0909476 0.200417 0.196985 
463 463 1 0 0.0978934 0.304082 0.199236 
465 465 1 0 0.205155 0.292158 0.197964 
62 62 2 0 0.0514439 0.357021 0.0515132 
262 262 2 0 0.0467699 0.35544 0.156929 
283 283 1 0 0.108338 0.399612 0.107718 
82 82 2 0 0.0536259 0.444605 0.0528815 
282 282 2 0 0.054783 0.450831 0.153304 
64 64 2 0 0.154288 0.349818 0.0573035 
284 284 2 0 0.158133 0.445769 0.15658 
84 84 2 0 0.158116 0.447093 0.053424 
264 264 2 0 0.150807 0.350648 0.158477 
281 281 1 0 0.00119574 0.403335 0.102016 
303 303 1 0 0.110354 0.493178 0.0999314 
83 83 1 0 0.106591 0.406367 0.000674842 
285 285 1 0 0.21078 0.398979 0.100916 
85 85 1 0 0.200115 0.395919 0.00553622 
485 485 1 0 0.214847 0.392824 0.188468 
621 621 1 0 0.000308558 0.0967654 0.292979 
623 623 1 0 0.0961156 0.0983719 0.294218 
402 402 2 0 0.0509008 0.046755 0.249437 
404 404 2 0 0.142223 0.0431528 0.249379 
424 424 2 0 0.145658 0.152393 0.249991 
422 422 2 0 0.0482853 0.143625 0.243123 
625 625 1 0 0.179791 0.0966198 0.300312 
406 406 2 0 0.244102 0.0467489 0.250074 
426 426 2 0 0.249493 0.155529 0.248243 
821 821 1 0 0.000636683 0.112509 0.396565 
622 622 2 0 0.042481 0.153514 0.339294 
604 604 2 0 0.14227 0.0481545 0.353625 
602 602 2 0 0.0474331 0.0509741 0.345893 
823 823 1 0 0.102923 0.111635 0.399133 
624 624 2 0 0.147187 0.161391 0.351833 
606 606 2 0 0.236712 0.0489055 0.347487 
825 825 1 0 0.196396 0.105596 0.394676 
626 626 2 0 0.239778 0.14366 0.33724 
661 661 1 0 0.00156788 0.307017 0.300587 
643 643 1 0 0.0924868 0.198112 0.293093 
663 663 1 0 0.0928133 0.297276 0.288931 
442 442 2 0 0.0401647 0.252224 0.242772 
444 444 2 0 0.141314 0.248254 0.242089 
445 445 1 0 0.19795 0.200289 0.201191 
645 645 1 0 0.201469 0.204284 0.293451 
665 665 1 0 0.191001 0.291334 0.291869 
861 861 1 0 0.00137252 0.299933 0.394347 
642 642 2 0 0.0442582 0.24943 0.340584 
644 644 2 0 0.145002 0.244152 0.338588 
843 843 1 0 0.0932681 0.206818 0.393461 
666 666 2 0 0.243803 0.330031 0.34742 
646 646 2 0 0.249729 0.247375 0.359254 
703 703 1 0 0.118149 0.486167 0.291861 
481 481 1 0 0.000753002 0.410596 0.200587 
681 681 1 0 0.00308847 0.403588 0.303471 
464 464 2 0 0.152791 0.347547 0.24503 
462 462 2 0 0.0469304 0.353728 0.240987 
483 483 1 0 0.102387 0.403109 0.203212 
683 683 1 0 0.103209 0.392849 0.292858 
482 482 2 0 0.0542854 0.454492 0.248339 
484 484 2 0 0.166016 0.441136 0.241665 
503 503 1 0 0.113507 0.494889 0.207416 
501 501 1 0 0.000465926 0.499362 0.203456 
705 705 1 0 0.205593 0.4943 0.295425 
685 685 1 0 0.205853 0.391099 0.300872 
903 903 1 0 0.109856 0.496429 0.399701 
881 881 1 0 0.0093938 0.406664 0.393527 
684 684 2 0 0.152086 0.433291 0.34485 
662 662 2 0 0.0552093 0.349406 0.349969 
682 682 2 0 0.0609245 0.450319 0.337319 
664 664 2 0 0.150288 0.341712 0.349439 
905 905 1 0 0.200636 0.497986 0.399507 
885 885 1 0 0.204453 0.38922 0.393221 
686 686 2 0 0.24674 0.444833 0.347992 
1003 1003 1 0 0.0980612 0.0130827 0.491408 
802 802 2 0 0.052181 0.0596904 0.437298 
822 822 2 0 0.0472026 0.161594 0.443932 
824 824 2 0 0.151048 0.153733 0.450088 
804 804 2 0 0.146033 0.0553652 0.438043 
1023 1023 1 0 0.0943762 0.105656 0.489949 
1021 1021 1 0 0.00626709 0.105736 0.489104 
803 803 1 0 0.0952617 0.00122042 0.402027 
1025 1025 1 0 0.200027 0.0992296 0.494363 
1005 1005 1 0 0.203627 0.0142308 0.495846 
1223 1223 1 0 0.100101 0.0992398 0.598803 
1002 1002 2 0 0.0363223 0.0618248 0.552717 
1024 1024 2 0 0.144469 0.14861 0.541572 
1022 1022 2 0 0.0463189 0.153909 0.552394 
1004 1004 2 0 0.147381 0.0547458 0.542577 
1006 1006 2 0 0.246355 0.0525274 0.553991 
1026 1026 2 0 0.242458 0.149249 0.5485 
1205 1205 1 0 0.19014 0.00249787 0.593622 
863 863 1 0 0.0979611 0.293422 0.401561 
842 842 2 0 0.0465141 0.252982 0.450258 
844 844 2 0 0.144733 0.245511 0.457731 
1045 1045 1 0 0.202444 0.19993 0.49787 
846 846 2 0 0.248459 0.250515 0.450046 
845 845 1 0 0.194002 0.207334 0.403288 
865 865 1 0 0.19165 0.293163 0.403141 
1042 1042 2 0 0.0437254 0.246756 0.561447 
1044 1044 2 0 0.145591 0.25654 0.557927 
1063 1063 1 0 0.0879431 0.305892 0.508464 
1061 1061 1 0 0.00610724 0.305755 0.500782 
1043 1043 1 0 0.0879634 0.205142 0.501722 
1245 1245 1 0 0.190524 0.197525 0.589219 
1046 1046 2 0 0.249622 0.248726 0.555678 
1065 1065 1 0 0.194036 0.297562 0.504954 
1081 1081 1 0 0.00127702 0.405075 0.495119 
862 862 2 0 0.055107 0.356267 0.452392 
884 884 2 0 0.152888 0.439222 0.446902 
883 883 1 0 0.104734 0.392693 0.40024 
864 864 2 0 0.146955 0.339809 0.452742 
882 882 2 0 0.0562321 0.446146 0.44657 
866 866 2 0 0.241506 0.345807 0.45014 
1103 1103 1 0 0.107271 0.486898 0.500612 
1062 1062 2 0 0.0382401 0.361235 0.555041 
1082 1082 2 0 0.0406173 0.458311 0.549016 
1084 1084 2 0 0.155618 0.448809 0.559643 
1064 1064 2 0 0.145021 0.353586 0.558543 
1083 1083 1 0 0.0970487 0.398444 0.509184 
1085 1085 1 0 0.196024 0.394526 0.510906 
1086 1086 2 0 0.248411 0.439685 0.554827 
1105 1105 1 0 0.20201 0.487586 0.503603 
1202 1202 2 0 0.0476786 0.0484371 0.638793 
1224 1224 2 0 0.156208 0.151573 0.65463 
1222 1222 2 0 0.0423843 0.159346 0.649387 
1204 1204 2 0 0.141781 0.0570922 0.656256 
1203 1203 1 0 0.106867 0.00828094 0.600976 
1225 1225 1 0 0.194532 0.0985131 0.600885 
1206 1206 2 0 0.249607 0.044773 0.63757 
1226 1226 2 0 0.248413 0.149808 0.646481 
1421 1421 1 0 0.000891315 0.102034 0.695492 
1423 1423 1 0 0.097341 0.110871 0.700602 
1623 1623 1 0 0.103514 0.106888 0.797293 
1402 1402 2 0 0.0376084 0.0534466 0.749407 
1424 1424 2 0 0.152276 0.163057 0.760892 
1404 1404 2 0 0.14428 0.0561769 0.746965 
1422 1422 2 0 0.0391189 0.142781 0.755744 
1403 1403 1 0 0.08765 0.00555446 0.697441 
1603 1603 1 0 0.0893782 0.00907694 0.797827 
1425 1425 1 0 0.205713 0.109471 0.705176 
1625 1625 1 0 0.191622 0.101524 0.798287 
1406 1406 2 0 0.246901 0.0486111 0.756924 
1426 1426 2 0 0.247572 0.14925 0.764219 
1405 1405 1 0 0.19473 0.00702994 0.695355 
1605 1605 1 0 0.194186 0.00111069 0.798525 
1243 1243 1 0 0.109346 0.195601 0.603682 
1263 1263 1 0 0.0902268 0.304016 0.601743 
1244 1244 2 0 0.149319 0.250234 0.647416 
1242 1242 2 0 0.0445815 0.242617 0.658801 
1265 1265 1 0 0.201419 0.299175 0.603654 
1443 1443 1 0 0.0959727 0.19442 0.711189 
1463 1463 1 0 0.100764 0.290425 0.70343 
1442 1442 2 0 0.046314 0.252273 0.751329 
1444 1444 2 0 0.150393 0.243547 0.757132 
1445 1445 1 0 0.201579 0.207368 0.698903 
1465 1465 1 0 0.202933 0.289726 0.705872 
1262 1262 2 0 0.0465973 0.352371 0.657602 
1283 1283 1 0 0.0958576 0.40216 0.600985 
1282 1282 2 0 0.0455849 0.447069 0.655286 
1264 1264 2 0 0.152648 0.349663 0.655089 
1284 1284 2 0 0.151501 0.452778 0.655933 
1303 1303 1 0 0.0937593 0.487213 0.602949 
1266 1266 2 0 0.243316 0.346392 0.660527 
1285 1285 1 0 0.201132 0.400535 0.608347 
1286 1286 2 0 0.248505 0.44989 0.66101 
1305 1305 1 0 0.205726 0.495061 0.607209 
1462 1462 2 0 0.0515962 0.352237 0.741818 
1483 1483 1 0 0.100783 0.403042 0.69967 
1683 1683 1 0 0.102722 0.388708 0.793466 
1482 1482 2 0 0.0606118 0.448327 0.756627 
1484 1484 2 0 0.145362 0.451429 0.755852 
1464 1464 2 0 0.150909 0.338692 0.749295 
1503 1503 1 0 0.102143 0.49835 0.705431 
1485 1485 1 0 0.204681 0.394682 0.717791 
1505 1505 1 0 0.197844 0.495493 0.706959 
1803 1803 1 0 0.0963356 0.00440763 0.90345 
1602 1602 2 0 0.0507001 0.0635859 0.853453 
1823 1823 1 0 0.101038 0.107263 0.910231 
1802 1802 2 0 0.0458425 0.045097 0.962865 
1622 1622 2 0 0.0368832 0.153686 0.844127 
1822 1822 2 0 0.0421628 0.154171 0.948679 
1604 1604 2 0 0.148966 0.0583078 0.851881 
1804 1804 2 0 0.145043 0.0504244 0.960474 
1624 1624 2 0 0.148151 0.153836 0.851092 
1824 1824 2 0 0.137857 0.154904 0.967138 
1801 1801 1 0 0.00149155 0.00863016 0.900198 
1626 1626 2 0 0.247642 0.140374 0.853412 
1606 1606 2 0 0.249127 0.0583306 0.846252 
1825 1825 1 0 0.194054 0.110237 0.91153 
1806 1806 2 0 0.237014 0.0462775 0.950922 
1826 1826 2 0 0.248513 0.154869 0.959188 
1643 1643 1 0 0.0926555 0.200625 0.803107 
1663 1663 1 0 0.0938421 0.297599 0.803953 
1645 1645 1 0 0.206904 0.199549 0.813045 
1665 1665 1 0 0.195312 0.296142 0.807545 
1644 1644 2 0 0.141146 0.247484 0.848662 
1642 1642 2 0 0.0381012 0.250222 0.844848 
1843 1843 1 0 0.0942376 0.198218 0.899989 
1863 1863 1 0 0.0915391 0.297047 0.892635 
1842 1842 2 0 0.0451152 0.253629 0.962949 
1844 1844 2 0 0.143983 0.260881 0.951015 
1846 1846 2 0 0.246935 0.251338 0.960122 
1845 1845 1 0 0.199201 0.207184 0.896423 
1865 1865 1 0 0.1987 0.303246 0.903286 
1685 1685 1 0 0.211259 0.404318 0.806598 
1903 1903 1 0 0.100863 0.490806 0.895092 
1881 1881 1 0 0.000439311 0.402812 0.90229 
1901 1901 1 0 0.00458022 0.48787 0.89498 
103 103 1 0 0.0930018 0.498081 0.997879 
1882 1882 2 0 0.049884 0.447113 0.951513 
1884 1884 2 0 0.159689 0.465362 0.964861 
1684 1684 2 0 0.148467 0.439967 0.845085 
1862 1862 2 0 0.0495344 0.363416 0.954045 
1864 1864 2 0 0.141969 0.348392 0.950825 
1664 1664 2 0 0.145924 0.350351 0.852224 
1883 1883 1 0 0.101194 0.398876 0.900354 
1682 1682 2 0 0.0517975 0.439612 0.845644 
1662 1662 2 0 0.0401777 0.348601 0.851388 
1885 1885 1 0 0.195313 0.415059 0.907711 
323 323 1 0 0.0977234 0.595565 0.10453 
102 102 2 0 0.0559294 0.5472 0.0503577 
302 302 2 0 0.0574931 0.5314 0.147575 
122 122 2 0 0.0469981 0.641403 0.0501903 
104 104 2 0 0.15063 0.548602 0.0453709 
322 322 2 0 0.0520605 0.64691 0.149 
124 124 2 0 0.140136 0.639648 0.0427965 
324 324 2 0 0.163972 0.65128 0.151456 
304 304 2 0 0.154727 0.547758 0.146201 
321 321 1 0 0.00474022 0.590524 0.100683 
325 325 1 0 0.194256 0.599655 0.0923522 
305 305 1 0 0.208847 0.507977 0.0878792 
521 521 1 0 0.00985567 0.587826 0.189986 
523 523 1 0 0.100865 0.585749 0.194217 
525 525 1 0 0.200595 0.594084 0.196847 
505 505 1 0 0.208969 0.503462 0.196751 
343 343 1 0 0.100148 0.694919 0.0924553 
363 363 1 0 0.10208 0.796822 0.100069 
142 142 2 0 0.0476957 0.751694 0.0463371 
344 344 2 0 0.150602 0.751758 0.14731 
144 144 2 0 0.146825 0.755044 0.0453824 
342 342 2 0 0.0613622 0.742165 0.149462 
361 361 1 0 0.00101049 0.799383 0.0961625 
161 161 1 0 0.000831758 0.803275 0.00313889 
341 341 1 0 3.1251e-05 0.702213 0.100507 
345 345 1 0 0.195816 0.701158 0.0974563 
365 365 1 0 0.203536 0.800404 0.0924213 
346 346 2 0 0.247066 0.751343 0.144385 
145 145 1 0 0.198713 0.690682 0.000373751 
543 543 1 0 0.103244 0.689241 0.197893 
563 563 1 0 0.0966155 0.801874 0.199476 
541 541 1 0 0.000505285 0.701916 0.191086 
545 545 1 0 0.199654 0.706627 0.199115 
362 362 2 0 0.0491724 0.84209 0.145805 
364 364 2 0 0.153781 0.844842 0.15374 
164 164 2 0 0.153102 0.849631 0.0459383 
162 162 2 0 0.0548752 0.845964 0.0521641 
383 383 1 0 0.102443 0.893175 0.109878 
182 182 2 0 0.0460166 0.944443 0.0468577 
184 184 2 0 0.152996 0.943111 0.0451673 
382 382 2 0 0.0459509 0.945675 0.143405 
384 384 2 0 0.146875 0.954658 0.143287 
3 3 1 0 0.096095 0.997616 0.0038519 
203 203 1 0 0.0953467 0.998251 0.0967663 
166 166 2 0 0.249371 0.850929 0.0499953 
385 385 1 0 0.195645 0.900536 0.104533 
366 366 2 0 0.245881 0.847845 0.153261 
205 205 1 0 0.200433 0.992784 0.0962185 
5 5 1 0 0.199214 0.995944 0.00294938 
581 581 1 0 0.00291421 0.902005 0.196845 
583 583 1 0 0.0916041 0.892915 0.194995 
405 405 1 0 0.202009 0.995569 0.193528 
721 721 1 0 0.0154122 0.590885 0.305784 
701 701 1 0 0.00235307 0.509217 0.309127 
723 723 1 0 0.106565 0.592403 0.296503 
502 502 2 0 0.0567835 0.543717 0.247549 
522 522 2 0 0.0545459 0.635796 0.249018 
504 504 2 0 0.160676 0.547325 0.253194 
524 524 2 0 0.152305 0.64043 0.245266 
725 725 1 0 0.213149 0.595324 0.305684 
526 526 2 0 0.24915 0.642287 0.246987 
704 704 2 0 0.157599 0.546995 0.345538 
702 702 2 0 0.0634966 0.549092 0.356845 
722 722 2 0 0.0663676 0.637711 0.354252 
724 724 2 0 0.153559 0.633401 0.348643 
761 761 1 0 0.0118134 0.7962 0.304884 
741 741 1 0 0.014999 0.686739 0.297985 
743 743 1 0 0.0966702 0.688809 0.298977 
763 763 1 0 0.102409 0.793215 0.298442 
542 542 2 0 0.0597641 0.741073 0.247465 
544 544 2 0 0.153224 0.747553 0.255674 
561 561 1 0 0.013808 0.792367 0.203539 
565 565 1 0 0.200684 0.792289 0.205309 
745 745 1 0 0.202619 0.689082 0.311534 
765 765 1 0 0.200653 0.797139 0.300197 
546 546 2 0 0.248193 0.748012 0.252968 
742 742 2 0 0.057519 0.735207 0.365092 
744 744 2 0 0.145947 0.739609 0.343887 
746 746 2 0 0.248305 0.741024 0.360533 
945 945 1 0 0.195922 0.686112 0.399124 
781 781 1 0 0.00627577 0.899684 0.306791 
562 562 2 0 0.0475172 0.851676 0.253686 
783 783 1 0 0.104755 0.898273 0.302628 
582 582 2 0 0.0449963 0.951799 0.245671 
584 584 2 0 0.137625 0.958764 0.238489 
564 564 2 0 0.146506 0.853561 0.248112 
603 603 1 0 0.0944188 0.996029 0.299279 
566 566 2 0 0.244904 0.855162 0.260246 
585 585 1 0 0.194202 0.904942 0.200041 
785 785 1 0 0.188552 0.900601 0.304561 
586 586 2 0 0.249514 0.950351 0.246645 
605 605 1 0 0.195219 0.997094 0.297862 
764 764 2 0 0.141895 0.843079 0.352243 
782 782 2 0 0.0588671 0.946498 0.35215 
762 762 2 0 0.0577326 0.848718 0.350369 
784 784 2 0 0.144778 0.955609 0.348188 
985 985 1 0 0.195622 0.895699 0.397153 
766 766 2 0 0.244137 0.850425 0.346512 
786 786 2 0 0.243795 0.950709 0.347877 
921 921 1 0 0.00472757 0.594448 0.404994 
923 923 1 0 0.110283 0.593934 0.408826 
902 902 2 0 0.0529784 0.547474 0.451079 
922 922 2 0 0.0633185 0.645132 0.45762 
904 904 2 0 0.153333 0.537916 0.45674 
924 924 2 0 0.160337 0.645178 0.459204 
901 901 1 0 0.000611346 0.505308 0.402874 
1125 1125 1 0 0.209475 0.588869 0.499396 
925 925 1 0 0.19915 0.589918 0.406392 
1323 1323 1 0 0.0959861 0.581137 0.593288 
1102 1102 2 0 0.0453233 0.546787 0.536758 
1104 1104 2 0 0.157073 0.534056 0.553165 
1122 1122 2 0 0.057531 0.64299 0.550966 
1124 1124 2 0 0.163361 0.637117 0.552843 
1123 1123 1 0 0.112012 0.593801 0.50473 
1126 1126 2 0 0.249662 0.636671 0.553009 
961 961 1 0 0.0063007 0.787744 0.401388 
1141 1141 1 0 0.00144018 0.685658 0.496325 
943 943 1 0 0.112645 0.685126 0.402964 
963 963 1 0 0.108415 0.790533 0.406863 
942 942 2 0 0.0618958 0.731732 0.44658 
944 944 2 0 0.161657 0.741426 0.45302 
1163 1163 1 0 0.094026 0.792073 0.496411 
946 946 2 0 0.249799 0.74559 0.448069 
965 965 1 0 0.191671 0.802612 0.406579 
1165 1165 1 0 0.206627 0.794711 0.498999 
1343 1343 1 0 0.0944191 0.708024 0.598495 
1363 1363 1 0 0.08855 0.789053 0.594657 
1142 1142 2 0 0.0452824 0.74186 0.542585 
1144 1144 2 0 0.162348 0.748919 0.55066 
1143 1143 1 0 0.110599 0.69285 0.513891 
1361 1361 1 0 0.000170664 0.79654 0.596055 
1146 1146 2 0 0.247785 0.751681 0.556022 
1145 1145 1 0 0.209748 0.693899 0.505627 
1181 1181 1 0 0.00230773 0.894499 0.497971 
982 982 2 0 0.0462068 0.954115 0.451284 
962 962 2 0 0.046371 0.841746 0.450611 
983 983 1 0 0.0953968 0.897637 0.407366 
984 984 2 0 0.155906 0.956872 0.463646 
964 964 2 0 0.147111 0.852433 0.45353 
981 981 1 0 0.0115799 0.89782 0.40144 
805 805 1 0 0.192637 0.997142 0.400724 
966 966 2 0 0.24757 0.847143 0.446247 
986 986 2 0 0.245804 0.955526 0.450801 
1183 1183 1 0 0.0938601 0.899751 0.505551 
1162 1162 2 0 0.0472776 0.83972 0.543174 
1383 1383 1 0 0.0876996 0.906121 0.586633 
1182 1182 2 0 0.0380199 0.954717 0.542682 
1184 1184 2 0 0.144748 0.949134 0.54538 
1164 1164 2 0 0.149721 0.84617 0.538873 
1381 1381 1 0 0.00276765 0.899436 0.595883 
1185 1185 1 0 0.202664 0.898954 0.503122 
1166 1166 2 0 0.245158 0.845302 0.55771 
1385 1385 1 0 0.190003 0.894606 0.590309 
1186 1186 2 0 0.249542 0.95856 0.535327 
1324 1324 2 0 0.145217 0.64312 0.639212 
1304 1304 2 0 0.147222 0.540062 0.647454 
1302 1302 2 0 0.0561983 0.546267 0.658617 
1322 1322 2 0 0.0430536 0.641651 0.662158 
1321 1321 1 0 0.00387771 0.589298 0.601343 
1325 1325 1 0 0.202364 0.587284 0.603285 
1701 1701 1 0 0.0023129 0.508898 0.795009 
1523 1523 1 0 0.109486 0.595077 0.694496 
1502 1502 2 0 0.0584166 0.551797 0.753439 
1522 1522 2 0 0.0533453 0.645645 0.75073 
1504 1504 2 0 0.153767 0.554746 0.74953 
1524 1524 2 0 0.152635 0.651569 0.738986 
1721 1721 1 0 0.00277072 0.598031 0.793722 
1501 1501 1 0 0.00501304 0.500734 0.705945 
1705 1705 1 0 0.204629 0.502697 0.799906 
1525 1525 1 0 0.198944 0.59038 0.687275 
1506 1506 2 0 0.247984 0.558965 0.752793 
1526 1526 2 0 0.242294 0.647259 0.741708 
1342 1342 2 0 0.0459452 0.741561 0.654406 
1344 1344 2 0 0.151389 0.745726 0.648154 
1341 1341 1 0 0.00649361 0.693435 0.60008 
1345 1345 1 0 0.196106 0.69292 0.601785 
1365 1365 1 0 0.20004 0.797658 0.607298 
1543 1543 1 0 0.102219 0.691183 0.687711 
1563 1563 1 0 0.100329 0.795167 0.693194 
1743 1743 1 0 0.0932328 0.706578 0.795917 
1763 1763 1 0 0.0930301 0.801055 0.788772 
1542 1542 2 0 0.0504498 0.74886 0.740491 
1544 1544 2 0 0.145595 0.741182 0.740964 
1761 1761 1 0 0.00675023 0.800616 0.788487 
1561 1561 1 0 0.00706472 0.802162 0.693368 
1545 1545 1 0 0.200404 0.698275 0.691398 
1565 1565 1 0 0.19686 0.807643 0.696295 
1745 1745 1 0 0.201069 0.694343 0.798359 
1765 1765 1 0 0.194705 0.800322 0.777551 
1546 1546 2 0 0.249621 0.752287 0.736203 
1364 1364 2 0 0.139881 0.853718 0.64649 
1384 1384 2 0 0.143658 0.947498 0.641938 
1382 1382 2 0 0.044631 0.956753 0.63913 
1362 1362 2 0 0.0531934 0.850015 0.641423 
1366 1366 2 0 0.239744 0.858574 0.644858 
1386 1386 2 0 0.238826 0.960256 0.644871 
1581 1581 1 0 0.00588904 0.907524 0.696054 
1564 1564 2 0 0.144734 0.857143 0.742719 
1562 1562 2 0 0.0492038 0.858075 0.748871 
1583 1583 1 0 0.0955767 0.902734 0.694646 
1582 1582 2 0 0.043085 0.947943 0.757356 
1584 1584 2 0 0.129777 0.954934 0.747496 
1585 1585 1 0 0.202474 0.907692 0.698979 
1785 1785 1 0 0.190419 0.913 0.799505 
1723 1723 1 0 0.107716 0.598146 0.80175 
1703 1703 1 0 0.108112 0.508808 0.802654 
1725 1725 1 0 0.20004 0.612098 0.807316 
121 121 1 0 0.00203987 0.594348 0.992292 
1722 1722 2 0 0.0472007 0.645095 0.845563 
1702 1702 2 0 0.0462917 0.555098 0.852964 
1923 1923 1 0 0.102 0.601681 0.895112 
1902 1902 2 0 0.0477033 0.548015 0.941187 
1922 1922 2 0 0.0356233 0.657684 0.950478 
1724 1724 2 0 0.144077 0.660316 0.845587 
1904 1904 2 0 0.140845 0.54573 0.950376 
1704 1704 2 0 0.163054 0.55178 0.850432 
1924 1924 2 0 0.151185 0.641873 0.954567 
123 123 1 0 0.0877291 0.598834 0.991535 
105 105 1 0 0.215876 0.515461 0.996327 
1925 1925 1 0 0.195801 0.614147 0.890921 
1906 1906 2 0 0.246805 0.561484 0.937029 
125 125 1 0 0.208469 0.602132 0.998714 
1905 1905 1 0 0.202224 0.500248 0.904316 
163 163 1 0 0.0915695 0.799158 0.995146 
1742 1742 2 0 0.0450013 0.754443 0.844039 
1744 1744 2 0 0.150124 0.757045 0.834913 
1943 1943 1 0 0.0855336 0.697555 0.895925 
1963 1963 1 0 0.100626 0.793529 0.892084 
1942 1942 2 0 0.0401912 0.742914 0.95582 
1944 1944 2 0 0.148269 0.740291 0.935412 
143 143 1 0 0.0964602 0.696885 0.996873 
165 165 1 0 0.199604 0.793357 0.989715 
1746 1746 2 0 0.249748 0.752566 0.839033 
1945 1945 1 0 0.208761 0.701378 0.888159 
1965 1965 1 0 0.196333 0.795936 0.895173 
1783 1783 1 0 0.103424 0.901508 0.806105 
1762 1762 2 0 0.0498523 0.839775 0.849079 
1962 1962 2 0 0.0423506 0.844675 0.946887 
183 183 1 0 0.0966284 0.894856 0.998715 
1782 1782 2 0 0.0473383 0.955687 0.855284 
1784 1784 2 0 0.142628 0.95476 0.855422 
1984 1984 2 0 0.14724 0.958054 0.950119 
1764 1764 2 0 0.161623 0.848225 0.839923 
1982 1982 2 0 0.0412206 0.948102 0.943218 
1983 1983 1 0 0.0913312 0.895768 0.902331 
1964 1964 2 0 0.144696 0.838278 0.943582 
1981 1981 1 0 0.00308677 0.891841 0.891312 
1805 1805 1 0 0.197371 0.998596 0.897965 
1966 1966 2 0 0.248887 0.84591 0.943346 
1986 1986 2 0 0.246249 0.942109 0.951339 
1766 1766 2 0 0.246509 0.855919 0.844283 
1985 1985 1 0 0.192132 0.896935 0.902144 
1786 1786 2 0 0.243107 0.954194 0.847735 
185 185 1 0 0.195189 0.894658 0.993532 
227 227 1 0 0.305956 0.0947095 0.091715 
226 226 2 0 0.255663 0.13855 0.145887 
27 27 1 0 0.295289 0.104303 0.00576455 
28 28 2 0 0.35727 0.147526 0.0529811 
8 8 2 0 0.347492 0.042521 0.0421975 
208 208 2 0 0.348079 0.0449706 0.147957 
229 229 1 0 0.399394 0.0899734 0.0968476 
10 10 2 0 0.450297 0.0450171 0.0503213 
228 228 2 0 0.343931 0.13899 0.148858 
30 30 2 0 0.451613 0.14397 0.0580789 
230 230 2 0 0.455037 0.147606 0.152676 
210 210 2 0 0.446345 0.0409357 0.148166 
209 209 1 0 0.395309 0.000208801 0.097087 
29 29 1 0 0.406466 0.0996643 0.00318647 
427 427 1 0 0.297224 0.0902508 0.198502 
407 407 1 0 0.292493 0.00799404 0.195334 
247 247 1 0 0.294444 0.200318 0.0937707 
267 267 1 0 0.308705 0.2948 0.0969414 
246 246 2 0 0.258703 0.245827 0.155671 
47 47 1 0 0.300055 0.203261 0.0106847 
48 48 2 0 0.35947 0.243264 0.0601593 
248 248 2 0 0.345944 0.24338 0.150095 
249 249 1 0 0.407835 0.196073 0.107199 
269 269 1 0 0.405985 0.288456 0.107797 
50 50 2 0 0.452087 0.23931 0.0527613 
250 250 2 0 0.45978 0.242805 0.15743 
447 447 1 0 0.304422 0.190644 0.197998 
66 66 2 0 0.255037 0.345001 0.0584342 
287 287 1 0 0.307435 0.400933 0.0905676 
86 86 2 0 0.2561 0.452004 0.0389797 
286 286 2 0 0.259165 0.455891 0.142511 
266 266 2 0 0.266209 0.35153 0.14005 
87 87 1 0 0.309179 0.392015 0.00493836 
68 68 2 0 0.363745 0.348213 0.0608818 
88 88 2 0 0.35659 0.460509 0.0447387 
70 70 2 0 0.451922 0.341288 0.0554046 
289 289 1 0 0.395755 0.4127 0.101428 
90 90 2 0 0.458287 0.445953 0.0586416 
290 290 2 0 0.444999 0.463511 0.147551 
270 270 2 0 0.450033 0.343703 0.148127 
288 288 2 0 0.352108 0.456732 0.156441 
268 268 2 0 0.353813 0.353134 0.147215 
91 91 1 0 0.497301 0.396452 0.00529189 
89 89 1 0 0.404034 0.397541 0.00618418 
487 487 1 0 0.306291 0.402305 0.195872 
491 491 1 0 0.497324 0.40206 0.194672 
489 489 1 0 0.404721 0.40648 0.198148 
627 627 1 0 0.293248 0.0942849 0.298766 
607 607 1 0 0.29129 0.00455556 0.304624 
409 409 1 0 0.394617 0.00295541 0.201817 
631 631 1 0 0.497563 0.0913105 0.305293 
408 408 2 0 0.341175 0.0427308 0.251311 
428 428 2 0 0.348905 0.153273 0.258504 
429 429 1 0 0.396167 0.0932921 0.201357 
629 629 1 0 0.39472 0.0946263 0.293422 
410 410 2 0 0.449582 0.050048 0.248859 
430 430 2 0 0.4492 0.141828 0.252626 
611 611 1 0 0.499213 0.00472534 0.29741 
827 827 1 0 0.295909 0.0980743 0.386237 
628 628 2 0 0.356115 0.146015 0.345387 
608 608 2 0 0.349889 0.041823 0.346586 
610 610 2 0 0.443391 0.0443868 0.344327 
829 829 1 0 0.396491 0.0954999 0.394768 
630 630 2 0 0.453466 0.141491 0.356746 
467 467 1 0 0.315961 0.290797 0.20971 
647 647 1 0 0.297424 0.19397 0.306265 
446 446 2 0 0.25966 0.242267 0.245965 
667 667 1 0 0.307604 0.291362 0.313519 
466 466 2 0 0.259984 0.331674 0.254338 
671 671 1 0 0.49897 0.299861 0.296375 
448 448 2 0 0.351796 0.242863 0.264882 
449 449 1 0 0.396501 0.198957 0.207112 
469 469 1 0 0.403241 0.302049 0.200338 
649 649 1 0 0.41001 0.197575 0.30073 
669 669 1 0 0.400306 0.298874 0.308598 
450 450 2 0 0.448151 0.252247 0.246968 
451 451 1 0 0.498961 0.189993 0.208259 
651 651 1 0 0.491585 0.202797 0.304031 
867 867 1 0 0.301003 0.30397 0.39798 
648 648 2 0 0.355154 0.237356 0.35481 
869 869 1 0 0.399711 0.302468 0.398019 
650 650 2 0 0.443587 0.246485 0.357796 
687 687 1 0 0.305296 0.39614 0.300031 
486 486 2 0 0.255357 0.440198 0.25172 
707 707 1 0 0.298973 0.49083 0.297858 
468 468 2 0 0.354792 0.351833 0.248153 
470 470 2 0 0.443759 0.354404 0.248209 
488 488 2 0 0.356428 0.459878 0.245387 
689 689 1 0 0.404945 0.412491 0.298039 
490 490 2 0 0.455338 0.453632 0.249193 
907 907 1 0 0.301343 0.495138 0.397885 
887 887 1 0 0.293172 0.399554 0.398386 
688 688 2 0 0.354292 0.453529 0.349864 
668 668 2 0 0.357125 0.35847 0.355287 
670 670 2 0 0.452175 0.352861 0.343572 
690 690 2 0 0.455893 0.449814 0.351323 
806 806 2 0 0.253809 0.0508471 0.439343 
826 826 2 0 0.25257 0.145284 0.439557 
1007 1007 1 0 0.306711 0.000489097 0.493594 
1011 1011 1 0 0.498632 0.00882438 0.494201 
1029 1029 1 0 0.400458 0.0966957 0.494353 
808 808 2 0 0.346731 0.0517441 0.441851 
810 810 2 0 0.445401 0.047837 0.44462 
828 828 2 0 0.341424 0.141475 0.451164 
830 830 2 0 0.454857 0.13903 0.447786 
1227 1227 1 0 0.300945 0.0990956 0.597785 
1027 1027 1 0 0.299954 0.095911 0.504073 
1008 1008 2 0 0.346225 0.0493173 0.552597 
1010 1010 2 0 0.446796 0.0491677 0.543757 
1030 1030 2 0 0.445763 0.148299 0.547145 
1028 1028 2 0 0.357708 0.145185 0.544447 
1211 1211 1 0 0.498151 0.00856216 0.593544 
1231 1231 1 0 0.496114 0.0945306 0.592365 
1067 1067 1 0 0.306408 0.301801 0.491079 
847 847 1 0 0.302245 0.197599 0.402386 
1069 1069 1 0 0.405402 0.305388 0.490414 
1049 1049 1 0 0.406544 0.192581 0.490141 
849 849 1 0 0.396077 0.183694 0.406028 
850 850 2 0 0.447229 0.250143 0.440064 
848 848 2 0 0.350576 0.244258 0.44934 
1071 1071 1 0 0.491102 0.295791 0.493883 
1047 1047 1 0 0.298799 0.190097 0.502629 
1247 1247 1 0 0.303131 0.197568 0.594883 
1267 1267 1 0 0.303973 0.300599 0.596347 
1048 1048 2 0 0.355612 0.250068 0.539113 
1249 1249 1 0 0.396492 0.200605 0.592907 
1269 1269 1 0 0.396031 0.289609 0.59872 
1050 1050 2 0 0.459213 0.251949 0.556901 
886 886 2 0 0.250365 0.446773 0.451912 
870 870 2 0 0.453632 0.346785 0.440626 
889 889 1 0 0.409083 0.406713 0.401334 
888 888 2 0 0.347821 0.449014 0.448095 
868 868 2 0 0.351656 0.361455 0.447789 
890 890 2 0 0.458708 0.449478 0.449523 
1091 1091 1 0 0.491302 0.390557 0.498661 
1089 1089 1 0 0.40709 0.399651 0.495091 
1066 1066 2 0 0.259509 0.34514 0.542705 
1087 1087 1 0 0.301462 0.401047 0.501752 
1107 1107 1 0 0.303931 0.483077 0.507749 
1088 1088 2 0 0.341573 0.434695 0.56433 
1068 1068 2 0 0.361389 0.348234 0.552294 
1070 1070 2 0 0.445003 0.345681 0.554082 
1090 1090 2 0 0.455157 0.44488 0.550596 
1109 1109 1 0 0.393176 0.486118 0.512963 
1209 1209 1 0 0.395752 0.0049011 0.600295 
1229 1229 1 0 0.402821 0.100555 0.607226 
1210 1210 2 0 0.450246 0.0473128 0.647789 
1208 1208 2 0 0.34884 0.0512423 0.651221 
1228 1228 2 0 0.346616 0.149662 0.652142 
1230 1230 2 0 0.455987 0.157281 0.649706 
1427 1427 1 0 0.290787 0.0960302 0.698999 
1627 1627 1 0 0.302412 0.0970322 0.796352 
1407 1407 1 0 0.296376 0.00351765 0.694752 
1408 1408 2 0 0.350537 0.0519174 0.742769 
1429 1429 1 0 0.410444 0.0993293 0.696664 
1410 1410 2 0 0.449261 0.0541134 0.756613 
1430 1430 2 0 0.453896 0.145096 0.760133 
1428 1428 2 0 0.349376 0.137694 0.739907 
1409 1409 1 0 0.403557 0.00349899 0.702018 
1431 1431 1 0 0.495603 0.101998 0.702083 
1246 1246 2 0 0.25884 0.251519 0.644361 
1248 1248 2 0 0.343635 0.238637 0.655545 
1250 1250 2 0 0.459996 0.240506 0.642278 
1467 1467 1 0 0.302586 0.29481 0.704894 
1446 1446 2 0 0.25527 0.243204 0.762164 
1447 1447 1 0 0.296016 0.19337 0.704696 
1451 1451 1 0 0.496633 0.195622 0.709524 
1471 1471 1 0 0.499701 0.285715 0.700405 
1448 1448 2 0 0.351016 0.245674 0.754969 
1449 1449 1 0 0.401593 0.199103 0.703028 
1469 1469 1 0 0.399947 0.283443 0.698998 
1450 1450 2 0 0.446485 0.245331 0.759321 
1287 1287 1 0 0.291065 0.393065 0.613553 
1309 1309 1 0 0.397626 0.491281 0.613005 
1288 1288 2 0 0.341704 0.448141 0.658705 
1270 1270 2 0 0.442305 0.33986 0.652447 
1289 1289 1 0 0.402085 0.397991 0.612763 
1290 1290 2 0 0.457704 0.444752 0.658847 
1268 1268 2 0 0.353331 0.344814 0.653354 
1291 1291 1 0 0.495068 0.396852 0.601867 
1466 1466 2 0 0.25436 0.33705 0.764943 
1487 1487 1 0 0.297995 0.385109 0.708588 
1486 1486 2 0 0.25481 0.452001 0.755069 
1711 1711 1 0 0.493699 0.494395 0.799309 
1468 1468 2 0 0.358514 0.337763 0.752943 
1488 1488 2 0 0.348058 0.439939 0.752403 
1470 1470 2 0 0.44486 0.343178 0.745479 
1489 1489 1 0 0.399424 0.39983 0.69594 
1689 1689 1 0 0.40314 0.390947 0.798495 
1490 1490 2 0 0.44898 0.442145 0.750951 
1509 1509 1 0 0.405131 0.498234 0.707992 
1691 1691 1 0 0.493726 0.389202 0.793406 
1607 1607 1 0 0.30119 0.00477656 0.810834 
1629 1629 1 0 0.396622 0.104095 0.800268 
1609 1609 1 0 0.395148 0.0108503 0.801124 
1827 1827 1 0 0.292724 0.0970253 0.907956 
1807 1807 1 0 0.292032 0.00963115 0.896132 
1809 1809 1 0 0.396218 0.0084777 0.907738 
1608 1608 2 0 0.35345 0.0614927 0.857749 
1808 1808 2 0 0.340387 0.0544041 0.95858 
1610 1610 2 0 0.444492 0.0577413 0.857556 
1630 1630 2 0 0.453609 0.145733 0.854886 
1628 1628 2 0 0.346579 0.147353 0.863577 
1829 1829 1 0 0.403086 0.101334 0.912054 
1810 1810 2 0 0.454368 0.0486123 0.953055 
1830 1830 2 0 0.464745 0.139989 0.954787 
1828 1828 2 0 0.344325 0.150222 0.958472 
1811 1811 1 0 0.497367 0.00523717 0.896847 
9 9 1 0 0.402414 0.000515379 0.997933 
1647 1647 1 0 0.303361 0.190135 0.809793 
1667 1667 1 0 0.311826 0.295034 0.808497 
1649 1649 1 0 0.399735 0.194888 0.810243 
1669 1669 1 0 0.404251 0.301013 0.811905 
1671 1671 1 0 0.49739 0.293239 0.804973 
67 67 1 0 0.318103 0.302587 0.99855 
1646 1646 2 0 0.251695 0.254734 0.855238 
1847 1847 1 0 0.2927 0.204028 0.910726 